 variables = x, y, z, active
 zone f = fepoint, et = brick, n =        10080 , e =         7980
   40.222277945373499        57.413699162327198        0.0000000000000000                1
   40.274974026672602        57.386803684093003        0.0000000000000000                1
   40.327670107971699        57.359183008614899        0.0000000000000000                1
   40.380366189270802        57.330688570871800        0.0000000000000000                1
   40.433062270569899        57.301103954719800        0.0000000000000000                1
   40.485758351869002        57.270087466804299        0.0000000000000000                1
   40.538454433168098        57.237026391596601        0.0000000000000000                1
   40.591150514467202        57.200525158602602        0.0000000000000000                1
   40.622900514467197        57.200525158602602        0.0000000000000000                1
   40.654650514467200        57.200525158602602        0.0000000000000000                1
   40.686400514467202        57.200525158602602        0.0000000000000000                1
   40.718150514467197        57.200525158602602        0.0000000000000000                1
   40.749900514467200        57.200525158602602        0.0000000000000000                1
   40.781650514467202        57.200525158602602        0.0000000000000000                1
   40.813400514467197        57.200525158602602        0.0000000000000000                1
   40.845150514467200        57.200525158602602        0.0000000000000000                1
   40.897846595766303        57.237026391596601        0.0000000000000000                1
   40.950542677065400        57.270087466804299        0.0000000000000000                1
   41.003238758364503        57.301103954719800        0.0000000000000000                1
   41.055934839663600        57.330688570871800        0.0000000000000000                1
   41.108630920962703        57.359183008614899        0.0000000000000000                1
   41.161327002261800        57.386803684093003        0.0000000000000000                1
   41.214023083560903        57.413699162327198        0.0000000000000000                1
   41.266719164860000        57.439977307598497        0.0000000000000000                1
   41.319415246159103        57.465719727170701        0.0000000000000000                1
   41.372111327458200        57.490990157793597        0.0000000000000000                1
   41.424807408757303        57.515839649551403        0.0000000000000000                1
   41.477503490056399        57.540309938477797        0.0000000000000000                1
   41.530199571355503        57.564435736323802        0.0000000000000000                1
   41.582895652654599        57.588246307483800        0.0000000000000000                1
   41.635591733953703        57.611766672847601        0.0000000000000000                1
   41.688287815252799        57.635018410979903        0.0000000000000000                1
   41.740983896551903        57.658020325556798        0.0000000000000000                1
   41.793679977850999        57.680788932756997        0.0000000000000000                1
   41.828140622169300        57.692886515895097        0.0000000000000000                1
   41.873857610851601        57.704424194167402        0.0000000000000000                1
   41.930287491261304        57.715274579054800        0.0000000000000000                1
   41.996759463151797        57.725319181560202        0.0000000000000000                1
   42.072483352685900        57.734449378045603        0.0000000000000000                1
   42.156559005487800        57.742567268347898        0.0000000000000000                1
   42.247986987069602        57.749586452795903        0.0000000000000000                1
   42.345680463432103        57.755432685105397        0.0000000000000000                1
   42.448478120612599        57.760044445804702        0.0000000000000000                1
   42.555157969599499        57.763373391973701        0.0000000000000000                1
   42.664451872511101        57.765384748130401        0.0000000000000000                1
   42.775060617360602        57.766057536498501        0.0000000000000000                1
   42.865060617360697        57.766057536498501        0.0000000000000000                1
   42.955060617360701        57.766057536498501        0.0000000000000000                1
   43.065669362210301        57.765384748130401        0.0000000000000000                1
   43.174963265121796        57.763373391973701        0.0000000000000000                1
   43.281643114108697        57.760044445804702        0.0000000000000000                1
   43.384440771289199        57.755432685105397        0.0000000000000000                1
   43.482134247651800        57.749586452795903        0.0000000000000000                1
   43.573562229233502        57.742567268347898        0.0000000000000000                1
   43.657637882035402        57.734449378045603        0.0000000000000000                1
   43.733361771569498        57.725319181560202        0.0000000000000000                1
   43.799833743459999        57.715274579054800        0.0000000000000000                1
   43.856263623869701        57.704424194167402        0.0000000000000000                1
   43.901980612552002        57.692886515895097        0.0000000000000000                1
   43.936441256870403        57.680788932756997        0.0000000000000000                1
   43.989137338169499        57.658020325556798        0.0000000000000000                1
   44.041833419468503        57.635018410979903        0.0000000000000000                1
   44.094529500767599        57.611766672847601        0.0000000000000000                1
   44.147225582066703        57.588246307483800        0.0000000000000000                1
   44.199921663365799        57.564435736323802        0.0000000000000000                1
   44.252617744664903        57.540309938477797        0.0000000000000000                1
   44.305313825963999        57.515839649551403        0.0000000000000000                1
   44.358009907263103        57.490990157793597        0.0000000000000000                1
   44.410705988562199        57.465719727170701        0.0000000000000000                1
   44.463402069861303        57.439977307598497        0.0000000000000000                1
   44.516098151160399        57.413699162327198        0.0000000000000000                1
   44.568794232459503        57.386803684093003        0.0000000000000000                1
   44.621490313758599        57.359183008614899        0.0000000000000000                1
   44.674186395057703        57.330688570871800        0.0000000000000000                1
   44.726882476356799        57.301103954719800        0.0000000000000000                1
   44.779578557655903        57.270087466804299        0.0000000000000000                1
   44.832274638954999        57.237026391596601        0.0000000000000000                1
   44.884970720254103        57.200525158602602        0.0000000000000000                1
   44.916720720254098        57.200525158602602        0.0000000000000000                1
   44.948470720254100        57.200525158602602        0.0000000000000000                1
   44.980220720254103        57.200525158602602        0.0000000000000000                1
   45.011970720254098        57.200525158602602        0.0000000000000000                1
   45.043720720254100        57.200525158602602        0.0000000000000000                1
   45.075470720254103        57.200525158602602        0.0000000000000000                1
   45.107220720254098        57.200525158602602        0.0000000000000000                1
   45.138970720254100        57.200525158602602        0.0000000000000000                1
   45.191666801553197        57.237026391596601        0.0000000000000000                1
   45.244362882852300        57.270087466804299        0.0000000000000000                1
   45.297058964151397        57.301103954719800        0.0000000000000000                1
   45.349755045450500        57.330688570871800        0.0000000000000000                1
   45.402451126749597        57.359183008614899        0.0000000000000000                1
   45.455147208048700        57.386803684093003        0.0000000000000000                1
   45.507843289347797        57.413699162327198        0.0000000000000000                1
   45.560539370646900        57.439977307598497        0.0000000000000000                1
   40.222277945373499        57.478463198745800        0.0000000000000000                1
   40.274974026672602        57.443475088198198        0.0000000000000000                1
   40.327670107971699        57.407733259067300        0.0000000000000000                1
   40.380366189270802        57.371088474984901        0.0000000000000000                1
   40.433062270569899        57.333324725060002        0.0000000000000000                1
   40.485758351869002        57.294103617775903        0.0000000000000000                1
   40.538454433168098        57.252824517468703        0.0000000000000000                1
   40.591150514467202        57.208139781130797        0.0000000000000000                1
   40.622900514467197        57.208139781130797        0.0000000000000000                1
   40.654650514467200        57.208139781130797        0.0000000000000000                1
   40.686400514467202        57.208139781130797        0.0000000000000000                1
   40.718150514467197        57.208139781130797        0.0000000000000000                1
   40.749900514467200        57.208139781130797        0.0000000000000000                1
   40.781650514467202        57.208139781130797        0.0000000000000000                1
   40.813400514467197        57.208139781130797        0.0000000000000000                1
   40.845150514467200        57.208139781130797        0.0000000000000000                1
   40.897846595766303        57.252824517468703        0.0000000000000000                1
   40.950542677065400        57.294103617775903        0.0000000000000000                1
   41.003238758364503        57.333324725060002        0.0000000000000000                1
   41.055934839663600        57.371088474984901        0.0000000000000000                1
   41.108630920962703        57.407733259067300        0.0000000000000000                1
   41.161327002261800        57.443475088198198        0.0000000000000000                1
   41.214023083560903        57.478463198745800        0.0000000000000000                1
   41.266719164860000        57.512806531168899        0.0000000000000000                1
   41.319415246159103        57.546587893537001        0.0000000000000000                1
   41.372111327458200        57.579872229163001        0.0000000000000000                1
   41.424807408757303        57.612711748038002        0.0000000000000000                1
   41.477503490056399        57.645149278296401        0.0000000000000000                1
   41.530199571355503        57.677220551059698        0.0000000000000000                1
   41.582895652654599        57.708955769863898        0.0000000000000000                1
   41.635591733953703        57.740380834778897        0.0000000000000000                1
   41.688287815252799        57.771518131872099        0.0000000000000000                1
   41.740983896551903        57.802387214514098        0.0000000000000000                1
   41.793679977850999        57.833005294382097        0.0000000000000000                1
   41.828140622169300        57.849297751273902        0.0000000000000000                1
   41.873857610851601        57.864851385301698        0.0000000000000000                1
   41.930287491261304        57.879491790660303        0.0000000000000000                1
   41.996759463151797        57.893056226098103        0.0000000000000000                1
   42.072483352685900        57.905395070845302        0.0000000000000000                1
   42.156559005487800        57.916373131227203        0.0000000000000000                1
   42.247986987069602        57.925870829629098        0.0000000000000000                1
   42.345680463432103        57.933785214000302        0.0000000000000000                1
   42.448478120612599        57.940030845233998        0.0000000000000000                1
   42.555157969599499        57.944540500121597        0.0000000000000000                1
   42.664451872511101        57.947265775718101        0.0000000000000000                1
   42.775060617360602        57.948177455785100        0.0000000000000000                1
   42.865060617360697        57.948177455785100        0.0000000000000000                1
   42.955060617360701        57.948177455785100        0.0000000000000000                1
   43.065669362210301        57.947265775718101        0.0000000000000000                1
   43.174963265121796        57.944540500121597        0.0000000000000000                1
   43.281643114108697        57.940030845233998        0.0000000000000000                1
   43.384440771289199        57.933785214000302        0.0000000000000000                1
   43.482134247651800        57.925870829629098        0.0000000000000000                1
   43.573562229233502        57.916373131227203        0.0000000000000000                1
   43.657637882035402        57.905395070845302        0.0000000000000000                1
   43.733361771569498        57.893056226098103        0.0000000000000000                1
   43.799833743459999        57.879491790660303        0.0000000000000000                1
   43.856263623869701        57.864851385301698        0.0000000000000000                1
   43.901980612552002        57.849297751273902        0.0000000000000000                1
   43.936441256870403        57.833005294382097        0.0000000000000000                1
   43.989137338169499        57.802387214514098        0.0000000000000000                1
   44.041833419468503        57.771518131872099        0.0000000000000000                1
   44.094529500767599        57.740380834778897        0.0000000000000000                1
   44.147225582066703        57.708955769863898        0.0000000000000000                1
   44.199921663365799        57.677220551059698        0.0000000000000000                1
   44.252617744664903        57.645149278296401        0.0000000000000000                1
   44.305313825963999        57.612711748038002        0.0000000000000000                1
   44.358009907263103        57.579872229163001        0.0000000000000000                1
   44.410705988562199        57.546587893537001        0.0000000000000000                1
   44.463402069861303        57.512806531168899        0.0000000000000000                1
   44.516098151160399        57.478463198745800        0.0000000000000000                1
   44.568794232459503        57.443475088198198        0.0000000000000000                1
   44.621490313758599        57.407733259067300        0.0000000000000000                1
   44.674186395057703        57.371088474984901        0.0000000000000000                1
   44.726882476356799        57.333324725060002        0.0000000000000000                1
   44.779578557655903        57.294103617775903        0.0000000000000000                1
   44.832274638954999        57.252824517468703        0.0000000000000000                1
   44.884970720254103        57.208139781130797        0.0000000000000000                1
   44.916720720254098        57.208139781130797        0.0000000000000000                1
   44.948470720254100        57.208139781130797        0.0000000000000000                1
   44.980220720254103        57.208139781130797        0.0000000000000000                1
   45.011970720254098        57.208139781130797        0.0000000000000000                1
   45.043720720254100        57.208139781130797        0.0000000000000000                1
   45.075470720254103        57.208139781130797        0.0000000000000000                1
   45.107220720254098        57.208139781130797        0.0000000000000000                1
   45.138970720254100        57.208139781130797        0.0000000000000000                1
   45.191666801553197        57.252824517468703        0.0000000000000000                1
   45.244362882852300        57.294103617775903        0.0000000000000000                1
   45.297058964151397        57.333324725060002        0.0000000000000000                1
   45.349755045450500        57.371088474984901        0.0000000000000000                1
   45.402451126749597        57.407733259067300        0.0000000000000000                1
   45.455147208048700        57.443475088198198        0.0000000000000000                1
   45.507843289347797        57.478463198745800        0.0000000000000000                1
   45.560539370646900        57.512806531168899        0.0000000000000000                1
   40.222277945373499        57.559079556083297        0.0000000000000000                1
   40.274974026672602        57.513656745937297        0.0000000000000000                1
   40.327670107971699        57.467501099833399        0.0000000000000000                1
   40.380366189270802        57.420472532167601        0.0000000000000000                1
   40.433062270569899        57.372369571628703        0.0000000000000000                1
   40.485758351869002        57.322879077004998        0.0000000000000000                1
   40.538454433168098        57.271450893121603        0.0000000000000000                1
   40.591150514467202        57.216869102974698        0.0000000000000000                1
   40.622900514467197        57.216869102974698        0.0000000000000000                1
   40.654650514467200        57.216869102974698        0.0000000000000000                1
   40.686400514467202        57.216869102974698        0.0000000000000000                1
   40.718150514467197        57.216869102974698        0.0000000000000000                1
   40.749900514467200        57.216869102974698        0.0000000000000000                1
   40.781650514467202        57.216869102974698        0.0000000000000000                1
   40.813400514467197        57.216869102974698        0.0000000000000000                1
   40.845150514467200        57.216869102974698        0.0000000000000000                1
   40.897846595766303        57.271450893121603        0.0000000000000000                1
   40.950542677065400        57.322879077004998        0.0000000000000000                1
   41.003238758364503        57.372369571628703        0.0000000000000000                1
   41.055934839663600        57.420472532167601        0.0000000000000000                1
   41.108630920962703        57.467501099833399        0.0000000000000000                1
   41.161327002261800        57.513656745937297        0.0000000000000000                1
   41.214023083560903        57.559079556083297        0.0000000000000000                1
   41.266719164860000        57.603872349588997        0.0000000000000000                1
   41.319415246159103        57.648113649219503        0.0000000000000000                1
   41.372111327458200        57.691865294472898        0.0000000000000000                1
   41.424807408757303        57.735177185783201        0.0000000000000000                1
   41.477503490056399        57.778090395206199        0.0000000000000000                1
   41.530199571355503        57.820639296949203        0.0000000000000000                1
   41.582895652654599        57.862853021051897        0.0000000000000000                1
   41.635591733953703        57.904756626503698        0.0000000000000000                1
   41.688287815252799        57.946371816824403        0.0000000000000000                1
   41.740983896551903        57.987717594965503        0.0000000000000000                1
   41.793679977850999        58.028810724272702        0.0000000000000000                1
   41.828140622169300        58.050709797061998        0.0000000000000000                1
   41.873857610851601        58.071636339945002        0.0000000000000000                1
   41.930287491261304        58.091352127081599        0.0000000000000000                1
   41.996759463151797        58.109634163554198        0.0000000000000000                1
   42.072483352685900        58.126276852262500        0.0000000000000000                1
   42.156559005487800        58.141093955687801        0.0000000000000000                1
   42.247986987069602        58.153920389102304        0.0000000000000000                1
   42.345680463432103        58.164613756548803        0.0000000000000000                1
   42.448478120612599        58.173055702513800        0.0000000000000000                1
   42.555157969599499        58.179152991498199        0.0000000000000000                1
   42.664451872511101        58.182838428560203        0.0000000000000000                1
   42.775060617360602        58.184071430221799        0.0000000000000000                1
   42.865060617360697        58.184071430221799        0.0000000000000000                1
   42.955060617360701        58.184071430221799        0.0000000000000000                1
   43.065669362210301        58.182838428560203        0.0000000000000000                1
   43.174963265121796        58.179152991498199        0.0000000000000000                1
   43.281643114108697        58.173055702513800        0.0000000000000000                1
   43.384440771289199        58.164613756548803        0.0000000000000000                1
   43.482134247651800        58.153920389102304        0.0000000000000000                1
   43.573562229233502        58.141093955687801        0.0000000000000000                1
   43.657637882035402        58.126276852262500        0.0000000000000000                1
   43.733361771569498        58.109634163554198        0.0000000000000000                1
   43.799833743459999        58.091352127081599        0.0000000000000000                1
   43.856263623869701        58.071636339945002        0.0000000000000000                1
   43.901980612552002        58.050709797061998        0.0000000000000000                1
   43.936441256870403        58.028810724272702        0.0000000000000000                1
   43.989137338169499        57.987717594965503        0.0000000000000000                1
   44.041833419468503        57.946371816824403        0.0000000000000000                1
   44.094529500767599        57.904756626503698        0.0000000000000000                1
   44.147225582066703        57.862853021051897        0.0000000000000000                1
   44.199921663365799        57.820639296949203        0.0000000000000000                1
   44.252617744664903        57.778090395206199        0.0000000000000000                1
   44.305313825963999        57.735177185783201        0.0000000000000000                1
   44.358009907263103        57.691865294472898        0.0000000000000000                1
   44.410705988562199        57.648113649219503        0.0000000000000000                1
   44.463402069861303        57.603872349588997        0.0000000000000000                1
   44.516098151160399        57.559079556083297        0.0000000000000000                1
   44.568794232459503        57.513656745937297        0.0000000000000000                1
   44.621490313758599        57.467501099833399        0.0000000000000000                1
   44.674186395057703        57.420472532167601        0.0000000000000000                1
   44.726882476356799        57.372369571628703        0.0000000000000000                1
   44.779578557655903        57.322879077004998        0.0000000000000000                1
   44.832274638954999        57.271450893121603        0.0000000000000000                1
   44.884970720254103        57.216869102974698        0.0000000000000000                1
   44.916720720254098        57.216869102974698        0.0000000000000000                1
   44.948470720254100        57.216869102974698        0.0000000000000000                1
   44.980220720254103        57.216869102974698        0.0000000000000000                1
   45.011970720254098        57.216869102974698        0.0000000000000000                1
   45.043720720254100        57.216869102974698        0.0000000000000000                1
   45.075470720254103        57.216869102974698        0.0000000000000000                1
   45.107220720254098        57.216869102974698        0.0000000000000000                1
   45.138970720254100        57.216869102974698        0.0000000000000000                1
   45.191666801553197        57.271450893121603        0.0000000000000000                1
   45.244362882852300        57.322879077004998        0.0000000000000000                1
   45.297058964151397        57.372369571628703        0.0000000000000000                1
   45.349755045450500        57.420472532167601        0.0000000000000000                1
   45.402451126749597        57.467501099833399        0.0000000000000000                1
   45.455147208048700        57.513656745937297        0.0000000000000000                1
   45.507843289347797        57.559079556083297        0.0000000000000000                1
   45.560539370646900        57.603872349588997        0.0000000000000000                1
   40.222277945373499        57.659428413716903        0.0000000000000000                1
   40.274974026672602        57.600569451926802        0.0000000000000000                1
   40.327670107971699        57.541078367850403        0.0000000000000000                1
   40.380366189270802        57.480838643359398        0.0000000000000000                1
   40.433062270569899        57.419683773849002        0.0000000000000000                1
   40.485758351869002        57.357357002082402        0.0000000000000000                1
   40.538454433168098        57.293411844235102        0.0000000000000000                1
   40.591150514467202        57.226876304194597        0.0000000000000000                1
   40.622900514467197        57.226876304194597        0.0000000000000000                1
   40.654650514467200        57.226876304194597        0.0000000000000000                1
   40.686400514467202        57.226876304194597        0.0000000000000000                1
   40.718150514467197        57.226876304194597        0.0000000000000000                1
   40.749900514467200        57.226876304194597        0.0000000000000000                1
   40.781650514467202        57.226876304194597        0.0000000000000000                1
   40.813400514467197        57.226876304194597        0.0000000000000000                1
   40.845150514467200        57.226876304194597        0.0000000000000000                1
   40.897846595766303        57.293411844235102        0.0000000000000000                1
   40.950542677065400        57.357357002082402        0.0000000000000000                1
   41.003238758364503        57.419683773849002        0.0000000000000000                1
   41.055934839663600        57.480838643359398        0.0000000000000000                1
   41.108630920962703        57.541078367850403        0.0000000000000000                1
   41.161327002261800        57.600569451926802        0.0000000000000000                1
   41.214023083560903        57.659428413716903        0.0000000000000000                1
   41.266719164860000        57.717741245589401        0.0000000000000000                1
   41.319415246159103        57.775573928462101        0.0000000000000000                1
   41.372111327458200        57.832978642578901        0.0000000000000000                1
   41.424807408757303        57.889997651907400        0.0000000000000000                1
   41.477503490056399        57.946665861207897        0.0000000000000000                1
   41.530199571355503        58.003012577613802        0.0000000000000000                1
   41.582895652654599        58.059062692242698        0.0000000000000000                1
   41.635591733953703        58.114837697665898        0.0000000000000000                1
   41.688287815252799        58.170356239221803        0.0000000000000000                1
   41.740983896551903        58.225634683616100        0.0000000000000000                1
   41.793679977850999        58.280687499970497        0.0000000000000000                1
   41.828140622169300        58.310069759856802        0.0000000000000000                1
   41.873857610851601        58.338174806177200        0.0000000000000000                1
   41.930287491261304        58.364677935684398        0.0000000000000000                1
   41.996759463151797        58.389274258096002        0.0000000000000000                1
   42.072483352685900        58.411681886826102        0.0000000000000000                1
   42.156559005487800        58.431644850287299        0.0000000000000000                1
   42.247986987069602        58.448935764317099        0.0000000000000000                1
   42.345680463432103        58.463358138729298        0.0000000000000000                1
   42.448478120612599        58.474748409753900        0.0000000000000000                1
   42.555157969599499        58.482977574628102        0.0000000000000000                1
   42.664451872511101        58.487952576545197        0.0000000000000000                1
   42.775060617360602        58.489617179382797        0.0000000000000000                1