 variables = x, y, z, active
 zone f = fepoint, et = brick, n =         8736 , e =         6840
   40.222277945373499        58.720629236205099        0.0000000000000000                1
   40.274974026672602        58.524282451928102        0.0000000000000000                1
   40.327670107971699        58.327970005752299        0.0000000000000000                1
   40.380366189270802        58.131702466899000        0.0000000000000000                1
   40.433062270569899        57.935496705492000        0.0000000000000000                1
   40.485758351869002        57.739382521282501        0.0000000000000000                1
   40.538454433168098        57.543421788879598        0.0000000000000000                1
   40.591150514467202        57.347789819425500        0.0000000000000000                1
   40.622900514467197        57.347789819425500        0.0000000000000000                1
   40.654650514467200        57.347789819425500        0.0000000000000000                1
   40.686400514467202        57.347789819425500        0.0000000000000000                1
   40.718150514467197        57.347789819425500        0.0000000000000000                1
   40.749900514467200        57.347789819425500        0.0000000000000000                1
   40.781650514467202        57.347789819425500        0.0000000000000000                1
   40.813400514467197        57.347789819425500        0.0000000000000000                1
   40.845150514467200        57.347789819425500        0.0000000000000000                1
   40.897846595766303        57.543421788879598        0.0000000000000000                1
   40.950542677065400        57.739382521282501        0.0000000000000000                1
   41.003238758364503        57.935496705492000        0.0000000000000000                1
   41.055934839663600        58.131702466899000        0.0000000000000000                1
   41.108630920962703        58.327970005752299        0.0000000000000000                1
   41.161327002261800        58.524282451928102        0.0000000000000000                1
   41.214023083560903        58.720629236205099        0.0000000000000000                1
   41.266719164860000        58.917003256211302        0.0000000000000000                1
   41.319415246159103        59.113399486976000        0.0000000000000000                1
   41.372111327458200        59.309814229811401        0.0000000000000000                1
   41.424807408757303        59.506244675516001        0.0000000000000000                1
   41.477503490056399        59.702688635366002        0.0000000000000000                1
   41.530199571355503        59.899144367588399        0.0000000000000000                1
   41.582895652654599        60.095610461353800        0.0000000000000000                1
   41.635591733953703        60.292085755989497        0.0000000000000000                1
   41.688287815252799        60.488569284310799        0.0000000000000000                1
   41.740983896551903        60.685060230877397        0.0000000000000000                1
   41.793679977850999        60.881557901215601        0.0000000000000000                1
   41.828140622169300        60.986748069985097        0.0000000000000000                1
   41.873857610851601        61.087566062724498        0.0000000000000000                1
   41.930287491261304        61.182813135417398        0.0000000000000000                1
   41.996759463151797        61.271356755334899        0.0000000000000000                1
   42.072483352685900        61.352144075441601        0.0000000000000000                1
   42.156559005487800        61.424214460565203        0.0000000000000000                1
   42.247986987069602        61.486710916127798        0.0000000000000000                1
   42.345680463432103        61.538890283797798        0.0000000000000000                1
   42.448478120612599        61.580132082527903        0.0000000000000000                1
   42.555157969599499        61.609945890161299        0.0000000000000000                1
   42.664451872511101        61.627977177429202        0.0000000000000000                1
   42.775060617360602        61.634011525664199        0.0000000000000000                1
   42.865060617360697        61.634011525664199        0.0000000000000000                1
   42.955060617360701        61.634011525664199        0.0000000000000000                1
   43.065669362210301        61.627977177429202        0.0000000000000000                1
   43.174963265121796        61.609945890161299        0.0000000000000000                1
   43.281643114108697        61.580132082527903        0.0000000000000000                1
   43.384440771289199        61.538890283797798        0.0000000000000000                1
   43.482134247651800        61.486710916127798        0.0000000000000000                1
   43.573562229233502        61.424214460565203        0.0000000000000000                1
   43.657637882035402        61.352144075441601        0.0000000000000000                1
   43.733361771569498        61.271356755334899        0.0000000000000000                1
   43.799833743459999        61.182813135417398        0.0000000000000000                1
   43.856263623869701        61.087566062724498        0.0000000000000000                1
   43.901980612552002        60.986748069985097        0.0000000000000000                1
   43.936441256870403        60.881557901215601        0.0000000000000000                1
   43.989137338169499        60.685060230877397        0.0000000000000000                1
   44.041833419468503        60.488569284310799        0.0000000000000000                1
   44.094529500767599        60.292085755989497        0.0000000000000000                1
   44.147225582066703        60.095610461353800        0.0000000000000000                1
   44.199921663365799        59.899144367588399        0.0000000000000000                1
   44.252617744664903        59.702688635366002        0.0000000000000000                1
   44.305313825963999        59.506244675516001        0.0000000000000000                1
   44.358009907263103        59.309814229811401        0.0000000000000000                1
   44.410705988562199        59.113399486976000        0.0000000000000000                1
   44.463402069861303        58.917003256211302        0.0000000000000000                1
   44.516098151160399        58.720629236205099        0.0000000000000000                1
   44.568794232459503        58.524282451928102        0.0000000000000000                1
   44.621490313758599        58.327970005752299        0.0000000000000000                1
   44.674186395057703        58.131702466899000        0.0000000000000000                1
   44.726882476356799        57.935496705492000        0.0000000000000000                1
   44.779578557655903        57.739382521282501        0.0000000000000000                1
   44.832274638954999        57.543421788879598        0.0000000000000000                1
   44.884970720254103        57.347789819425500        0.0000000000000000                1
   44.916720720254098        57.347789819425500        0.0000000000000000                1
   44.948470720254100        57.347789819425500        0.0000000000000000                1
   44.980220720254103        57.347789819425500        0.0000000000000000                1
   45.011970720254098        57.347789819425500        0.0000000000000000                1
   45.043720720254100        57.347789819425500        0.0000000000000000                1
   45.075470720254103        57.347789819425500        0.0000000000000000                1
   45.107220720254098        57.347789819425500        0.0000000000000000                1
   45.138970720254100        57.347789819425500        0.0000000000000000                1
   45.191666801553197        57.543421788879598        0.0000000000000000                1
   45.244362882852300        57.739382521282501        0.0000000000000000                1
   45.297058964151397        57.935496705492000        0.0000000000000000                1
   45.349755045450500        58.131702466899000        0.0000000000000000                1
   45.402451126749597        58.327970005752299        0.0000000000000000                1
   45.455147208048700        58.524282451928102        0.0000000000000000                1
   45.507843289347797        58.720629236205099        0.0000000000000000                1
   45.560539370646900        58.917003256211302        0.0000000000000000                1
   40.222277945373499        58.722578657527698        0.0000000000000000                1
   40.274974026672602        58.526134318034202        0.0000000000000000                1
   40.327670107971699        58.329714919670401        0.0000000000000000                1
   40.380366189270802        58.133328305439797        0.0000000000000000                1
   40.433062270569899        57.936987065200199        0.0000000000000000                1
   40.485758351869002        57.740713593663898        0.0000000000000000                1
   40.538454433168098        57.544554817724702        0.0000000000000000                1
   40.591150514467202        57.348645544690797        0.0000000000000000                1
   40.622900514467197        57.348645544690797        0.0000000000000000                1
   40.654650514467200        57.348645544690797        0.0000000000000000                1
   40.686400514467202        57.348645544690797        0.0000000000000000                1
   40.718150514467197        57.348645544690797        0.0000000000000000                1
   40.749900514467200        57.348645544690797        0.0000000000000000                1
   40.781650514467202        57.348645544690797        0.0000000000000000                1
   40.813400514467197        57.348645544690797        0.0000000000000000                1
   40.845150514467200        57.348645544690797        0.0000000000000000                1
   40.897846595766303        57.544554817724702        0.0000000000000000                1
   40.950542677065400        57.740713593663898        0.0000000000000000                1
   41.003238758364503        57.936987065200199        0.0000000000000000                1
   41.055934839663600        58.133328305439797        0.0000000000000000                1
   41.108630920962703        58.329714919670401        0.0000000000000000                1
   41.161327002261800        58.526134318034202        0.0000000000000000                1
   41.214023083560903        58.722578657527698        0.0000000000000000                1
   41.266719164860000        58.919042692955202        0.0000000000000000                1
   41.319415246159103        59.115522728690500        0.0000000000000000                1
   41.372111327458200        59.312016054487898        0.0000000000000000                1
   41.424807408757303        59.508520618636403        0.0000000000000000                1
   41.477503490056399        59.705034827348300        0.0000000000000000                1
   41.530199571355503        59.901557415748897        0.0000000000000000                1
   41.582895652654599        60.098087361854901        0.0000000000000000                1
   41.635591733953703        60.294623826857404        0.0000000000000000                1
   41.688287815252799        60.491166113287498        0.0000000000000000                1
   41.740983896551903        60.687713634299300        0.0000000000000000                1
   41.793679977850999        60.884265891056501        0.0000000000000000                1
   41.828140622169300        60.989484523243398        0.0000000000000000                1
   41.873857610851601        61.090329328528398        0.0000000000000000                1
   41.930287491261304        61.185601329039599        0.0000000000000000                1
   41.996759463151797        61.274167784538903        0.0000000000000000                1
   42.072483352685900        61.354975665802300        0.0000000000000000                1
   42.156559005487800        61.427064179732703        0.0000000000000000                1
   42.247986987069602        61.489576197117302        0.0000000000000000                1
   42.345680463432103        61.541768447336700        0.0000000000000000                1
   42.448478120612599        61.583020358615300        0.0000000000000000                1
   42.555157969599499        61.612841438921301        0.0000000000000000                1
   42.664451872511101        61.630877109493298        0.0000000000000000                1
   42.775060617360602        61.636912922104699        0.0000000000000000                1
   42.865060617360697        61.636912922104699        0.0000000000000000                1
   42.955060617360701        61.636912922104699        0.0000000000000000                1
   43.065669362210301        61.630877109493298        0.0000000000000000                1
   43.174963265121796        61.612841438921301        0.0000000000000000                1
   43.281643114108697        61.583020358615300        0.0000000000000000                1
   43.384440771289199        61.541768447336700        0.0000000000000000                1
   43.482134247651800        61.489576197117302        0.0000000000000000                1
   43.573562229233502        61.427064179732703        0.0000000000000000                1
   43.657637882035402        61.354975665802300        0.0000000000000000                1
   43.733361771569498        61.274167784538903        0.0000000000000000                1
   43.799833743459999        61.185601329039599        0.0000000000000000                1
   43.856263623869701        61.090329328528398        0.0000000000000000                1
   43.901980612552002        60.989484523243398        0.0000000000000000                1
   43.936441256870403        60.884265891056501        0.0000000000000000                1
   43.989137338169499        60.687713634299300        0.0000000000000000                1
   44.041833419468503        60.491166113287498        0.0000000000000000                1
   44.094529500767599        60.294623826857404        0.0000000000000000                1
   44.147225582066703        60.098087361854901        0.0000000000000000                1
   44.199921663365799        59.901557415748897        0.0000000000000000                1
   44.252617744664903        59.705034827348300        0.0000000000000000                1
   44.305313825963999        59.508520618636403        0.0000000000000000                1
   44.358009907263103        59.312016054487898        0.0000000000000000                1
   44.410705988562199        59.115522728690500        0.0000000000000000                1
   44.463402069861303        58.919042692955202        0.0000000000000000                1
   44.516098151160399        58.722578657527698        0.0000000000000000                1
   44.568794232459503        58.526134318034202        0.0000000000000000                1
   44.621490313758599        58.329714919670401        0.0000000000000000                1
   44.674186395057703        58.133328305439797        0.0000000000000000                1
   44.726882476356799        57.936987065200199        0.0000000000000000                1
   44.779578557655903        57.740713593663898        0.0000000000000000                1
   44.832274638954999        57.544554817724702        0.0000000000000000                1
   44.884970720254103        57.348645544690797        0.0000000000000000                1
   44.916720720254098        57.348645544690797        0.0000000000000000                1
   44.948470720254100        57.348645544690797        0.0000000000000000                1
   44.980220720254103        57.348645544690797        0.0000000000000000                1
   45.011970720254098        57.348645544690797        0.0000000000000000                1
   45.043720720254100        57.348645544690797        0.0000000000000000                1
   45.075470720254103        57.348645544690797        0.0000000000000000                1
   45.107220720254098        57.348645544690797        0.0000000000000000                1
   45.138970720254100        57.348645544690797        0.0000000000000000                1
   45.191666801553197        57.544554817724702        0.0000000000000000                1
   45.244362882852300        57.740713593663898        0.0000000000000000                1
   45.297058964151397        57.936987065200199        0.0000000000000000                1
   45.349755045450500        58.133328305439797        0.0000000000000000                1
   45.402451126749597        58.329714919670401        0.0000000000000000                1
   45.455147208048700        58.526134318034202        0.0000000000000000                1
   45.507843289347797        58.722578657527698        0.0000000000000000                1
   45.560539370646900        58.919042692955202        0.0000000000000000                1
   40.222277945373499        58.724144746565997        0.0000000000000000                1
   40.274974026672602        58.527629692407302        0.0000000000000000                1
   40.327670107971699        58.331132337577003        0.0000000000000000                1
   40.380366189270802        58.134658364671303        0.0000000000000000                1
   40.433062270569899        57.938216946787698        0.0000000000000000                1
   40.485758351869002        57.741824513736802        0.0000000000000000                1
   40.538454433168098        57.545515806198502        0.0000000000000000                1
   40.591150514467202        57.349391997279000        0.0000000000000000                1
   40.622900514467197        57.349391997279000        0.0000000000000000                1
   40.654650514467200        57.349391997279000        0.0000000000000000                1
   40.686400514467202        57.349391997279000        0.0000000000000000                1
   40.718150514467197        57.349391997279000        0.0000000000000000                1
   40.749900514467200        57.349391997279000        0.0000000000000000                1
   40.781650514467202        57.349391997279000        0.0000000000000000                1
   40.813400514467197        57.349391997279000        0.0000000000000000                1
   40.845150514467200        57.349391997279000        0.0000000000000000                1
   40.897846595766303        57.545515806198502        0.0000000000000000                1
   40.950542677065400        57.741824513736802        0.0000000000000000                1
   41.003238758364503        57.938216946787698        0.0000000000000000                1
   41.055934839663600        58.134658364671303        0.0000000000000000                1
   41.108630920962703        58.331132337577003        0.0000000000000000                1
   41.161327002261800        58.527629692407302        0.0000000000000000                1
   41.214023083560903        58.724144746565997        0.0000000000000000                1
   41.266719164860000        58.920673717604899        0.0000000000000000                1
   41.319415246159103        59.117213951405901        0.0000000000000000                1
   41.372111327458200        59.313763508560001        0.0000000000000000                1
   41.424807408757303        59.510320925646802        0.0000000000000000                1
   41.477503490056399        59.706885069201498        0.0000000000000000                1
   41.530199571355503        59.903455042087998        0.0000000000000000                1
   41.582895652654599        60.100030121232003        0.0000000000000000                1
   41.635591733953703        60.296609714524699        0.0000000000000000                1
   41.688287815252799        60.493193330675702        0.0000000000000000                1
   41.740983896551903        60.689780557143997        0.0000000000000000                1
   41.793679977850999        60.886371043917201        0.0000000000000000                1
   41.828140622169300        60.991609580029397        0.0000000000000000                1
   41.873857610851601        61.092473115884900        0.0000000000000000                1
   41.930287491261304        61.187762514043698        0.0000000000000000                1
   41.996759463151797        61.276344893326304        0.0000000000000000                1
   42.072483352685900        61.357167101297101        0.0000000000000000                1
   42.156559005487800        61.429268238479999        0.0000000000000000                1
   42.247986987069602        61.491791085297102        0.0000000000000000                1
   42.345680463432103        61.543992295999800        0.0000000000000000                1
   42.448478120612599        61.585251238271702        0.0000000000000000                1
   42.555157969599499        61.615077373556602        0.0000000000000000                1
   42.664451872511101        61.633116090195699        0.0000000000000000                1
   42.775060617360602        61.639152920336102        0.0000000000000000                1
   42.865060617360697        61.639152920336102        0.0000000000000000                1
   42.955060617360701        61.639152920336102        0.0000000000000000                1
   43.065669362210301        61.633116090195699        0.0000000000000000                1
   43.174963265121796        61.615077373556602        0.0000000000000000                1
   43.281643114108697        61.585251238271702        0.0000000000000000                1
   43.384440771289199        61.543992295999800        0.0000000000000000                1
   43.482134247651800        61.491791085297102        0.0000000000000000                1
   43.573562229233502        61.429268238479999        0.0000000000000000                1
   43.657637882035402        61.357167101297101        0.0000000000000000                1
   43.733361771569498        61.276344893326304        0.0000000000000000                1
   43.799833743459999        61.187762514043698        0.0000000000000000                1
   43.856263623869701        61.092473115884900        0.0000000000000000                1
   43.901980612552002        60.991609580029397        0.0000000000000000                1
   43.936441256870403        60.886371043917201        0.0000000000000000                1
   43.989137338169499        60.689780557143997        0.0000000000000000                1
   44.041833419468503        60.493193330675702        0.0000000000000000                1
   44.094529500767599        60.296609714524699        0.0000000000000000                1
   44.147225582066703        60.100030121232003        0.0000000000000000                1
   44.199921663365799        59.903455042087998        0.0000000000000000                1
   44.252617744664903        59.706885069201498        0.0000000000000000                1
   44.305313825963999        59.510320925646802        0.0000000000000000                1
   44.358009907263103        59.313763508560001        0.0000000000000000                1
   44.410705988562199        59.117213951405901        0.0000000000000000                1
   44.463402069861303        58.920673717604899        0.0000000000000000                1
   44.516098151160399        58.724144746565997        0.0000000000000000                1
   44.568794232459503        58.527629692407302        0.0000000000000000                1
   44.621490313758599        58.331132337577003        0.0000000000000000                1
   44.674186395057703        58.134658364671303        0.0000000000000000                1
   44.726882476356799        57.938216946787698        0.0000000000000000                1
   44.779578557655903        57.741824513736802        0.0000000000000000                1
   44.832274638954999        57.545515806198502        0.0000000000000000                1
   44.884970720254103        57.349391997279000        0.0000000000000000                1
   44.916720720254098        57.349391997279000        0.0000000000000000                1
   44.948470720254100        57.349391997279000        0.0000000000000000                1
   44.980220720254103        57.349391997279000        0.0000000000000000                1
   45.011970720254098        57.349391997279000        0.0000000000000000                1
   45.043720720254100        57.349391997279000        0.0000000000000000                1
   45.075470720254103        57.349391997279000        0.0000000000000000                1
   45.107220720254098        57.349391997279000        0.0000000000000000                1
   45.138970720254100        57.349391997279000        0.0000000000000000                1
   45.191666801553197        57.545515806198502        0.0000000000000000                1
   45.244362882852300        57.741824513736802        0.0000000000000000                1
   45.297058964151397        57.938216946787698        0.0000000000000000                1
   45.349755045450500        58.134658364671303        0.0000000000000000                1
   45.402451126749597        58.331132337577003        0.0000000000000000                1
   45.455147208048700        58.527629692407302        0.0000000000000000                1
   45.507843289347797        58.724144746565997        0.0000000000000000                1
   45.560539370646900        58.920673717604899        0.0000000000000000                1
   40.222277945373499        58.725402881401997        0.0000000000000000                1
   40.274974026672602        58.528837201151298        0.0000000000000000                1
   40.327670107971699        58.332283725906898        0.0000000000000000                1
   40.380366189270802        58.135746453995800        0.0000000000000000                1
   40.433062270569899        57.939231875406001        0.0000000000000000                1
   40.485758351869002        57.742751693524902        0.0000000000000000                1
   40.538454433168098        57.546330877104097        0.0000000000000000                1
   40.591150514467202        57.350043130871697        0.0000000000000000                1
   40.622900514467197        57.350043130871697        0.0000000000000000                1
   40.654650514467200        57.350043130871697        0.0000000000000000                1
   40.686400514467202        57.350043130871697        0.0000000000000000                1
   40.718150514467197        57.350043130871697        0.0000000000000000                1
   40.749900514467200        57.350043130871697        0.0000000000000000                1
   40.781650514467202        57.350043130871697        0.0000000000000000                1
   40.813400514467197        57.350043130871697        0.0000000000000000                1
   40.845150514467200        57.350043130871697        0.0000000000000000                1
   40.897846595766303        57.546330877104097        0.0000000000000000                1
   40.950542677065400        57.742751693524902        0.0000000000000000                1
   41.003238758364503        57.939231875406001        0.0000000000000000                1
   41.055934839663600        58.135746453995800        0.0000000000000000                1
   41.108630920962703        58.332283725906898        0.0000000000000000                1
   41.161327002261800        58.528837201151298        0.0000000000000000                1
   41.214023083560903        58.725402881401997        0.0000000000000000                1
   41.266719164860000        58.921978117663201        0.0000000000000000                1
   41.319415246159103        59.118561058639798        0.0000000000000000                1
   41.372111327458200        59.315150356371802        0.0000000000000000                1
   41.424807408757303        59.511744996970400        0.0000000000000000                1
   41.477503490056399        59.708344197414803        0.0000000000000000                1
   41.530199571355503        59.904947339582101        0.0000000000000000                1
   41.582895652654599        60.101553926485998        0.0000000000000000                1
   41.635591733953703        60.298163552078002        0.0000000000000000                1
   41.688287815252799        60.494775880152801        0.0000000000000000                1
   41.740983896551903        60.691390628952398        0.0000000000000000                1
   41.793679977850999        60.888007559867297        0.0000000000000000                1
   41.828140622169300        60.993259842583797        0.0000000000000000                1
   41.873857610851601        61.094136301606397        0.0000000000000000                1
   41.930287491261304        61.189437692046099        0.0000000000000000                1
   41.996759463151797        61.278031038267500        0.0000000000000000                1
   42.072483352685900        61.358863105632402        0.0000000000000000                1
   42.156559005487800        61.430972923986303        0.0000000000000000                1
   42.247986987069602        61.493503213939000        0.0000000000000000                1
   42.345680463432103        61.545710580179701        0.0000000000000000                1
   42.448478120612599        61.586974350567900        0.0000000000000000                1
   42.555157969599499        61.616803956013896        0.0000000000000000                1
   42.664451872511101        61.634844763307903        0.0000000000000000                1
   42.775060617360602        61.640882291754302        0.0000000000000000                1