 variables = x, y, z, active
 zone f = fepoint, et = brick, n =         9310 , e =         7332
   51.653309773784002        61.357133573469703        0.0000000000000000                1
   51.762603676695498        61.339886763963896        0.0000000000000000                1
   51.869283525682398        61.311372034807299        0.0000000000000000                1
   51.972081182863000        61.271931384919696        0.0000000000000000                1
   52.069774659225502        61.222037768181600        0.0000000000000000                1
   52.161202640807304        61.162289353581897        0.0000000000000000                1
   52.245278293609204        61.093402245711303        0.0000000000000000                1
   52.321002183143300        61.016201780434997        0.0000000000000000                1
   52.387474155033800        60.931612484960802        0.0000000000000000                1
   52.443904035443502        60.840646843512801        0.0000000000000000                1
   52.489621024125697        60.744392990016003        0.0000000000000000                1
   52.524081668444097        60.644001490673197        0.0000000000000000                1
   52.576777749743201        60.456572678760303        0.0000000000000000                1
   52.629473831042297        60.269295187093299        0.0000000000000000                1
   52.682169912341401        60.082180733277497        0.0000000000000000                1
   52.734865993640497        59.895242743541900        0.0000000000000000                1
   52.787562074939601        59.708496732333003        0.0000000000000000                1
   52.840258156238697        59.521960813961698        0.0000000000000000                1
   52.892954237537801        59.335656351161099        0.0000000000000000                1
   52.945650318836897        59.149608890474298        0.0000000000000000                1
   52.998346400136001        58.963849432056001        0.0000000000000000                1
   53.051042481435097        58.778416275502202        0.0000000000000000                1
   53.103738562734200        58.593357769375601        0.0000000000000000                1
   53.156434644033297        58.408736586027899        0.0000000000000000                1
   53.209130725332400        58.224636724663497        0.0000000000000000                1
   53.261826806631497        58.041175757330201        0.0000000000000000                1
   53.314522887930600        57.858528236146100        0.0000000000000000                1
   53.367218969229697        57.676976254586599        0.0000000000000000                1
   53.419915050528800        57.497041250700001        0.0000000000000000                1
   53.472611131827897        57.319965377485801        0.0000000000000000                1
   53.504361131827899        57.319965377485801        0.0000000000000000                1
   53.536111131827901        57.319965377485801        0.0000000000000000                1
   53.567861131827897        57.319965377485801        0.0000000000000000                1
   53.599611131827899        57.319965377485801        0.0000000000000000                1
   53.631361131827902        57.319965377485801        0.0000000000000000                1
   53.663111131827897        57.319965377485801        0.0000000000000000                1
   53.694861131827899        57.319965377485801        0.0000000000000000                1
   53.726611131827902        57.319965377485801        0.0000000000000000                1
   53.779307213126998        57.497041250700001        0.0000000000000000                1
   53.832003294426102        57.676976254586599        0.0000000000000000                1
   53.884699375725198        57.858528236146100        0.0000000000000000                1
   53.937395457024301        58.041175757330201        0.0000000000000000                1
   53.990091538323398        58.224636724663497        0.0000000000000000                1
   54.042787619622501        58.408736586027899        0.0000000000000000                1
   54.095483700921598        58.593357769375601        0.0000000000000000                1
   54.148179782220701        58.778416275502202        0.0000000000000000                1
   54.200875863519698        58.963849432056001        0.0000000000000000                1
   54.253571944818802        59.149608890474298        0.0000000000000000                1
   54.306268026117898        59.335656351161099        0.0000000000000000                1
   54.358964107417002        59.521960813961698        0.0000000000000000                1
   54.411660188716098        59.708496732333003        0.0000000000000000                1
   54.464356270015202        59.895242743541900        0.0000000000000000                1
   54.517052351314298        60.082180733277497        0.0000000000000000                1
   54.569748432613402        60.269295187093299        0.0000000000000000                1
   54.622444513912498        60.456572678760303        0.0000000000000000                1
   54.675140595211602        60.644001490673197        0.0000000000000000                1
   54.709601239530002        60.744392990016003        0.0000000000000000                1
   54.755318228212197        60.840646843512801        0.0000000000000000                1
   54.811748108621899        60.931612484960802        0.0000000000000000                1
   54.878220080512399        61.016201780434997        0.0000000000000000                1
   54.953943970046502        61.093402245711303        0.0000000000000000                1
   55.038019622848402        61.162289353581897        0.0000000000000000                1
   55.129447604430197        61.222037768181600        0.0000000000000000                1
   55.227141080792798        61.271931384919696        0.0000000000000000                1
   55.329938737973301        61.311372034807299        0.0000000000000000                1
   55.436618586960201        61.339886763963896        0.0000000000000000                1
   55.545912489871696        61.357133573469703        0.0000000000000000                1
   55.656521234721303        61.362905589618002        0.0000000000000000                1
   55.789449395515398        61.362905589618002        0.0000000000000000                1
   55.941652804283997        61.362905589618002        0.0000000000000000                1
   56.115926468362197        61.362905589618002        0.0000000000000000                1
   56.315470685124303        61.362905589618002        0.0000000000000000                1
   56.543949811065801        61.362905589618002        0.0000000000000000                1
   56.805559552696202        61.362905589618002        0.0000000000000000                1
   57.105104014948097        61.362905589618002        0.0000000000000000                1
   57.448083921990602        61.362905589618002        0.0000000000000000                1
   57.840797630501399        61.362905589618002        0.0000000000000000                1
   58.290456790369497        61.362905589618002        0.0000000000000000                1
   58.805318776776900        61.362905589618002        0.0000000000000000                1
   59.394838325594897        61.362905589618002        0.0000000000000000                1
   60.069841156671202        61.362905589618002        0.0000000000000000                1
   60.842722773361700        61.362905589618002        0.0000000000000000                1
   61.727676088987899        61.362905589618002        0.0000000000000000                1
   62.740952060269699        61.362905589618002        0.0000000000000000                1
   63.901158113908103        61.362905589618002        0.0000000000000000                1
   65.229599846515796        61.362905589618002        0.0000000000000000                1
   66.750672272745106        61.362905589618002        0.0000000000000000                1
   68.492307806351405        61.362905589618002        0.0000000000000000                1
   70.486489200750597        61.362905589618002        0.0000000000000000                1
   72.769836868522106        61.362905589618002        0.0000000000000000                1
   75.384281365176506        61.362905589618002        0.0000000000000000                1
   78.377833386432002        61.362905589618002        0.0000000000000000                1
   81.805465418946198        61.362905589618002        0.0000000000000000                1
   85.730121234812003        61.362905589618002        0.0000000000000000                1
   51.653309773784002        61.421764071925502        0.0000000000000000                1
   51.762603676695498        61.404302538732701        0.0000000000000000                1
   51.869283525682398        61.375432404847700        0.0000000000000000                1
   51.972081182863000        61.335499351668403        0.0000000000000000                1
   52.069774659225502        61.284981454387101        0.0000000000000000                1
   52.161202640807304        61.224483402725099        0.0000000000000000                1
   52.245278293609204        61.154729176228898        0.0000000000000000                1
   52.321002183143300        61.076553281918898        0.0000000000000000                1
   52.387474155033800        60.990890648086904        0.0000000000000000                1
   52.443904035443502        60.898765310519799        0.0000000000000000                1
   52.489621024125697        60.801278016974202        0.0000000000000000                1
   52.524081668444097        60.699592909751999        0.0000000000000000                1
   52.576777749743201        60.509728584118797        0.0000000000000000                1
   52.629473831042297        60.319989548851900        0.0000000000000000                1
   52.682169912341401        60.130385782447100        0.0000000000000000                1
   52.734865993640497        59.940928742654698        0.0000000000000000                1
   52.787562074939601        59.751631699352799        0.0000000000000000                1
   52.840258156238697        59.562510182427999        0.0000000000000000                1
   52.892954237537801        59.373582555605402        0.0000000000000000                1
   52.945650318836897        59.184870839154200        0.0000000000000000                1
   52.998346400136001        58.996401835277098        0.0000000000000000                1
   53.051042481435097        58.808208766712497        0.0000000000000000                1
   53.103738562734200        58.620333726287598        0.0000000000000000                1
   53.156434644033297        58.432831499747103        0.0000000000000000                1
   53.209130725332400        58.245775854570603        0.0000000000000000                1
   53.261826806631497        58.059270591373902        0.0000000000000000                1
   53.314522887930600        57.873470786044798        0.0000000000000000                1
   53.367218969229697        57.688628992316303        0.0000000000000000                1
   53.419915050528800        57.505216752508296        0.0000000000000000                1
   53.472611131827897        57.324374172158201        0.0000000000000000                1
   53.504361131827899        57.324374172158201        0.0000000000000000                1
   53.536111131827901        57.324374172158201        0.0000000000000000                1
   53.567861131827897        57.324374172158201        0.0000000000000000                1
   53.599611131827899        57.324374172158201        0.0000000000000000                1
   53.631361131827902        57.324374172158201        0.0000000000000000                1
   53.663111131827897        57.324374172158201        0.0000000000000000                1
   53.694861131827899        57.324374172158201        0.0000000000000000                1
   53.726611131827902        57.324374172158201        0.0000000000000000                1
   53.779307213126998        57.505216752508296        0.0000000000000000                1
   53.832003294426102        57.688628992316303        0.0000000000000000                1
   53.884699375725198        57.873470786044798        0.0000000000000000                1
   53.937395457024301        58.059270591373902        0.0000000000000000                1
   53.990091538323398        58.245775854570603        0.0000000000000000                1
   54.042787619622501        58.432831499747103        0.0000000000000000                1
   54.095483700921598        58.620333726287598        0.0000000000000000                1
   54.148179782220701        58.808208766712497        0.0000000000000000                1
   54.200875863519698        58.996401835277098        0.0000000000000000                1
   54.253571944818802        59.184870839154200        0.0000000000000000                1
   54.306268026117898        59.373582555605402        0.0000000000000000                1
   54.358964107417002        59.562510182427999        0.0000000000000000                1
   54.411660188716098        59.751631699352799        0.0000000000000000                1
   54.464356270015202        59.940928742654698        0.0000000000000000                1
   54.517052351314298        60.130385782447100        0.0000000000000000                1
   54.569748432613402        60.319989548851900        0.0000000000000000                1
   54.622444513912498        60.509728584118797        0.0000000000000000                1
   54.675140595211602        60.699592909751999        0.0000000000000000                1
   54.709601239530002        60.801278016974202        0.0000000000000000                1
   54.755318228212197        60.898765310519799        0.0000000000000000                1
   54.811748108621899        60.990890648086904        0.0000000000000000                1
   54.878220080512399        61.076553281918898        0.0000000000000000                1
   54.953943970046502        61.154729176228898        0.0000000000000000                1
   55.038019622848402        61.224483402725099        0.0000000000000000                1
   55.129447604430197        61.284981454387101        0.0000000000000000                1
   55.227141080792798        61.335499351668403        0.0000000000000000                1
   55.329938737973301        61.375432404847700        0.0000000000000000                1
   55.436618586960201        61.404302538732701        0.0000000000000000                1
   55.545912489871696        61.421764071925502        0.0000000000000000                1
   55.656521234721303        61.427607909932298        0.0000000000000000                1
   55.789449395515398        61.427607909932298        0.0000000000000000                1
   55.941652804283997        61.427607909932298        0.0000000000000000                1
   56.115926468362197        61.427607909932298        0.0000000000000000                1
   56.315470685124303        61.427607909932298        0.0000000000000000                1
   56.543949811065801        61.427607909932298        0.0000000000000000                1
   56.805559552696202        61.427607909932298        0.0000000000000000                1
   57.105104014948097        61.427607909932298        0.0000000000000000                1
   57.448083921990602        61.427607909932298        0.0000000000000000                1
   57.840797630501399        61.427607909932298        0.0000000000000000                1
   58.290456790369497        61.427607909932298        0.0000000000000000                1
   58.805318776776900        61.427607909932298        0.0000000000000000                1
   59.394838325594897        61.427607909932298        0.0000000000000000                1
   60.069841156671202        61.427607909932298        0.0000000000000000                1
   60.842722773361700        61.427607909932298        0.0000000000000000                1
   61.727676088987899        61.427607909932298        0.0000000000000000                1
   62.740952060269699        61.427607909932298        0.0000000000000000                1
   63.901158113908103        61.427607909932298        0.0000000000000000                1
   65.229599846515796        61.427607909932298        0.0000000000000000                1
   66.750672272745106        61.427607909932298        0.0000000000000000                1
   68.492307806351405        61.427607909932298        0.0000000000000000                1
   70.486489200750597        61.427607909932298        0.0000000000000000                1
   72.769836868522106        61.427607909932298        0.0000000000000000                1
   75.384281365176506        61.427607909932298        0.0000000000000000                1
   78.377833386432002        61.427607909932298        0.0000000000000000                1
   81.805465418946198        61.427607909932298        0.0000000000000000                1
   85.730121234812003        61.427607909932298        0.0000000000000000                1
   51.653309773784002        61.471664012902600        0.0000000000000000                1
   51.762603676695498        61.454044219431502        0.0000000000000000                1
   51.869283525682398        61.424912084759498        0.0000000000000000                1
   51.972081182863000        61.384615927552701        0.0000000000000000                1
   52.069774659225502        61.333637494433603        0.0000000000000000                1
   52.161202640807304        61.272586156011300        0.0000000000000000                1
   52.245278293609204        61.202191554327001        0.0000000000000000                1
   52.321002183143300        61.123294804214503        0.0000000000000000                1
   52.387474155033800        61.036838345622400        0.0000000000000000                1
   52.443904035443502        60.943854579374303        0.0000000000000000                1
   52.489621024125697        60.845453415254298        0.0000000000000000                1
   52.524081668444097        60.742808889791299        0.0000000000000000                1
   52.576777749743201        60.551135463377499        0.0000000000000000                1
   52.629473831042297        60.359564157947098        0.0000000000000000                1
   52.682169912341401        60.168103331574898        0.0000000000000000                1
   52.734865993640497        59.976762601600399        0.0000000000000000                1
   52.787562074939601        59.785553131546301        0.0000000000000000                1
   52.840258156238697        59.594488016817301        0.0000000000000000                1
   52.892954237537801        59.403582783259800        0.0000000000000000                1
   52.945650318836897        59.212856099049702        0.0000000000000000                1
   52.998346400136001        59.022330754905497        0.0000000000000000                1
   53.051042481435097        58.832035094095403        0.0000000000000000                1
   53.103738562734200        58.642005157664201        0.0000000000000000                1
   53.156434644033297        58.452288044893699        0.0000000000000000                1
   53.209130725332400        58.262947464556603        0.0000000000000000                1
   53.261826806631497        58.074073537952401        0.0000000000000000                1
   53.314522887930600        57.885801746745102        0.0000000000000000                1
   53.367218969229697        57.698354429061602        0.0000000000000000                1
   53.419915050528800        57.512150876947800        0.0000000000000000                1
   53.472611131827897        57.328219981470298        0.0000000000000000                1
   53.504361131827899        57.328219981470298        0.0000000000000000                1
   53.536111131827901        57.328219981470298        0.0000000000000000                1
   53.567861131827897        57.328219981470298        0.0000000000000000                1
   53.599611131827899        57.328219981470298        0.0000000000000000                1
   53.631361131827902        57.328219981470298        0.0000000000000000                1
   53.663111131827897        57.328219981470298        0.0000000000000000                1
   53.694861131827899        57.328219981470298        0.0000000000000000                1
   53.726611131827902        57.328219981470298        0.0000000000000000                1
   53.779307213126998        57.512150876947800        0.0000000000000000                1
   53.832003294426102        57.698354429061602        0.0000000000000000                1
   53.884699375725198        57.885801746745102        0.0000000000000000                1
   53.937395457024301        58.074073537952401        0.0000000000000000                1
   53.990091538323398        58.262947464556603        0.0000000000000000                1
   54.042787619622501        58.452288044893699        0.0000000000000000                1
   54.095483700921598        58.642005157664201        0.0000000000000000                1
   54.148179782220701        58.832035094095403        0.0000000000000000                1
   54.200875863519698        59.022330754905497        0.0000000000000000                1
   54.253571944818802        59.212856099049702        0.0000000000000000                1
   54.306268026117898        59.403582783259800        0.0000000000000000                1
   54.358964107417002        59.594488016817301        0.0000000000000000                1
   54.411660188716098        59.785553131546301        0.0000000000000000                1
   54.464356270015202        59.976762601600399        0.0000000000000000                1
   54.517052351314298        60.168103331574898        0.0000000000000000                1
   54.569748432613402        60.359564157947098        0.0000000000000000                1
   54.622444513912498        60.551135463377499        0.0000000000000000                1
   54.675140595211602        60.742808889791299        0.0000000000000000                1
   54.709601239530002        60.845453415254298        0.0000000000000000                1
   54.755318228212197        60.943854579374303        0.0000000000000000                1
   54.811748108621899        61.036838345622400        0.0000000000000000                1
   54.878220080512399        61.123294804214503        0.0000000000000000                1
   54.953943970046502        61.202191554327001        0.0000000000000000                1
   55.038019622848402        61.272586156011300        0.0000000000000000                1
   55.129447604430197        61.333637494433603        0.0000000000000000                1
   55.227141080792798        61.384615927552701        0.0000000000000000                1
   55.329938737973301        61.424912084759498        0.0000000000000000                1
   55.436618586960201        61.454044219431502        0.0000000000000000                1
   55.545912489871696        61.471664012902600        0.0000000000000000                1
   55.656521234721303        61.477560781265403        0.0000000000000000                1
   55.789449395515398        61.477560781265403        0.0000000000000000                1
   55.941652804283997        61.477560781265403        0.0000000000000000                1
   56.115926468362197        61.477560781265403        0.0000000000000000                1
   56.315470685124303        61.477560781265403        0.0000000000000000                1
   56.543949811065801        61.477560781265403        0.0000000000000000                1
   56.805559552696202        61.477560781265403        0.0000000000000000                1
   57.105104014948097        61.477560781265403        0.0000000000000000                1
   57.448083921990602        61.477560781265403        0.0000000000000000                1
   57.840797630501399        61.477560781265403        0.0000000000000000                1
   58.290456790369497        61.477560781265403        0.0000000000000000                1
   58.805318776776900        61.477560781265403        0.0000000000000000                1
   59.394838325594897        61.477560781265403        0.0000000000000000                1
   60.069841156671202        61.477560781265403        0.0000000000000000                1
   60.842722773361700        61.477560781265403        0.0000000000000000                1
   61.727676088987899        61.477560781265403        0.0000000000000000                1
   62.740952060269699        61.477560781265403        0.0000000000000000                1
   63.901158113908103        61.477560781265403        0.0000000000000000                1
   65.229599846515796        61.477560781265403        0.0000000000000000                1
   66.750672272745106        61.477560781265403        0.0000000000000000                1
   68.492307806351405        61.477560781265403        0.0000000000000000                1
   70.486489200750597        61.477560781265403        0.0000000000000000                1
   72.769836868522106        61.477560781265403        0.0000000000000000                1
   75.384281365176506        61.477560781265403        0.0000000000000000                1
   78.377833386432002        61.477560781265403        0.0000000000000000                1
   81.805465418946198        61.477560781265403        0.0000000000000000                1
   85.730121234812003        61.477560781265403        0.0000000000000000                1
   51.653309773784002        61.510190779197302        0.0000000000000000                1
   51.762603676695498        61.492454605825401        0.0000000000000000                1
   51.869283525682398        61.463129764779502        0.0000000000000000                1
   51.972081182863000        61.422566457512801        0.0000000000000000                1
   52.069774659225502        61.371249054476003        0.0000000000000000                1
   52.161202640807304        61.309790276109403        0.0000000000000000                1
   52.245278293609204        61.238923823751200        0.0000000000000000                1
   52.321002183143300        61.159495559005798        0.0000000000000000                1
   52.387474155033800        61.072453330930301        0.0000000000000000                1
   52.443904035443502        60.978835580603700        0.0000000000000000                1
   52.489621024125697        60.879758854093900        0.0000000000000000                1
   52.524081668444097        60.776404379197899        0.0000000000000000                1
   52.576777749743201        60.583390198545302        0.0000000000000000                1
   52.629473831042297        60.390458119932397        0.0000000000000000                1
   52.682169912341401        60.197615043246500        0.0000000000000000                1
   52.734865993640497        60.004868924584997        0.0000000000000000                1
   52.787562074939601        59.812229019846598        0.0000000000000000                1
   52.840258156238697        59.619706212091501        0.0000000000000000                1
   52.892954237537801        59.427313437895698        0.0000000000000000                1
   52.945650318836897        59.235066294479502        0.0000000000000000                1
   52.998346400136001        59.042983880529803        0.0000000000000000                1
   53.051042481435097        58.851090025505897        0.0000000000000000                1
   53.103738562734200        58.659415140169997        0.0000000000000000                1
   53.156434644033297        58.467999126221997        0.0000000000000000                1
   53.209130725332400        58.276896202787803        0.0000000000000000                1
   53.261826806631497        58.086183470924297        0.0000000000000000                1
   53.314522887930600        57.895977559629799        0.0000000000000000                1
   53.367218969229697        57.706471330177898        0.0000000000000000                1
   53.419915050528800        57.518032116151304        0.0000000000000000                1
   53.472611131827897        57.331574696389801        0.0000000000000000                1
   53.504361131827899        57.331574696389801        0.0000000000000000                1
   53.536111131827901        57.331574696389801        0.0000000000000000                1
   53.567861131827897        57.331574696389801        0.0000000000000000                1
   53.599611131827899        57.331574696389801        0.0000000000000000                1
   53.631361131827902        57.331574696389801        0.0000000000000000                1
   53.663111131827897        57.331574696389801        0.0000000000000000                1
   53.694861131827899        57.331574696389801        0.0000000000000000                1
   53.726611131827902        57.331574696389801        0.0000000000000000                1
   53.779307213126998        57.518032116151304        0.0000000000000000                1
   53.832003294426102        57.706471330177898        0.0000000000000000                1
   53.884699375725198        57.895977559629799        0.0000000000000000                1
   53.937395457024301        58.086183470924297        0.0000000000000000                1
   53.990091538323398        58.276896202787803        0.0000000000000000                1
   54.042787619622501        58.467999126221997        0.0000000000000000                1
   54.095483700921598        58.659415140169997        0.0000000000000000                1
   54.148179782220701        58.851090025505897        0.0000000000000000                1