 variables = x, y, z, active
 zone f = fepoint, et = brick, n =         8736 , e =         6840
   0.0000000000000000        61.634011525664199        0.0000000000000000                1
   4.1539145779503199        61.634011525664199        0.0000000000000000                1
   7.7473125359654302        61.634011525664199        0.0000000000000000                1
   10.855828179959200        61.634011525664199        0.0000000000000000                1
   13.544890071197999        61.634011525664199        0.0000000000000000                1
   15.871098037654500        61.634011525664199        0.0000000000000000                1
   17.883414496727401        61.634011525664199        0.0000000000000000                1
   19.624195024456601        61.634011525664199        0.0000000000000000                1
   21.130079862826801        61.634011525664199        0.0000000000000000                1
   22.432765129758099        61.634011525664199        0.0000000000000000                1
   23.559669964337701        61.634011525664199        0.0000000000000000                1
   24.534513649482399        61.634011525664199        0.0000000000000000                1
   25.377814859403198        61.634011525664199        0.0000000000000000                1
   26.107323540118699        61.634011525664199        0.0000000000000000                1
   26.738394513311501        61.634011525664199        0.0000000000000000                1
   27.284310667202700        61.634011525664199        0.0000000000000000                1
   27.756562537022599        61.634011525664199        0.0000000000000000                1
   28.165090159733001        61.634011525664199        0.0000000000000000                1
   28.518492293600900        61.634011525664199        0.0000000000000000                1
   28.824207406311601        61.634011525664199        0.0000000000000000                1
   29.088670241090799        61.634011525664199        0.0000000000000000                1
   29.317447256264600        61.634011525664199        0.0000000000000000                1
   29.515353789012401        61.634011525664199        0.0000000000000000                1
   29.686555409395901        61.634011525664199        0.0000000000000000                1
   29.834655597979900        61.634011525664199        0.0000000000000000                1
   29.962771592498399        61.634011525664199        0.0000000000000000                1
   30.073599999999999        61.634011525664199        0.0000000000000000                1
   30.184208744849599        61.627977177429202        0.0000000000000000                1
   30.293502647761098        61.609945890161299        0.0000000000000000                1
   30.400182496747998        61.580132082527903        0.0000000000000000                1
   30.502980153928601        61.538890283797798        0.0000000000000000                1
   30.600673630291102        61.486710916127798        0.0000000000000000                1
   30.692101611872900        61.424214460565203        0.0000000000000000                1
   30.776177264674800        61.352144075441601        0.0000000000000000                1
   30.851901154208900        61.271356755334899        0.0000000000000000                1
   30.918373126099400        61.182813135417398        0.0000000000000000                1
   30.974803006509099        61.087566062724498        0.0000000000000000                1
   31.020519995191300        60.986748069985097        0.0000000000000000                1
   31.054980639509701        60.881557901215601        0.0000000000000000                1
   31.107676720808801        60.685060230877397        0.0000000000000000                1
   31.160372802107901        60.488569284310799        0.0000000000000000                1
   31.213068883407001        60.292085755989497        0.0000000000000000                1
   31.265764964706101        60.095610461353800        0.0000000000000000                1
   31.318461046005201        59.899144367588399        0.0000000000000000                1
   31.371157127304301        59.702688635366002        0.0000000000000000                1
   31.423853208603401        59.506244675516001        0.0000000000000000                1
   31.476549289902501        59.309814229811401        0.0000000000000000                1
   31.529245371201601        59.113399486976000        0.0000000000000000                1
   31.581941452500701        58.917003256211302        0.0000000000000000                1
   31.634637533799800        58.720629236205099        0.0000000000000000                1
   31.687333615098900        58.524282451928102        0.0000000000000000                1
   31.740029696397901        58.327970005752299        0.0000000000000000                1
   31.792725777697001        58.131702466899000        0.0000000000000000                1
   31.845421858996101        57.935496705492000        0.0000000000000000                1
   31.898117940295201        57.739382521282501        0.0000000000000000                1
   31.950814021594301        57.543421788879598        0.0000000000000000                1
   32.003510102893401        57.347789819425500        0.0000000000000000                1
   32.035260102893403        57.347789819425500        0.0000000000000000                1
   32.067010102893398        57.347789819425500        0.0000000000000000                1
   32.098760102893401        57.347789819425500        0.0000000000000000                1
   32.130510102893403        57.347789819425500        0.0000000000000000                1
   32.162260102893399        57.347789819425500        0.0000000000000000                1
   32.194010102893401        57.347789819425500        0.0000000000000000                1
   32.225760102893403        57.347789819425500        0.0000000000000000                1
   32.257510102893399        57.347789819425500        0.0000000000000000                1
   32.310206184192502        57.543421788879598        0.0000000000000000                1
   32.362902265491599        57.739382521282501        0.0000000000000000                1
   32.415598346790702        57.935496705492000        0.0000000000000000                1
   32.468294428089798        58.131702466899000        0.0000000000000000                1
   32.520990509388902        58.327970005752299        0.0000000000000000                1
   32.573686590687998        58.524282451928102        0.0000000000000000                1
   32.626382671987102        58.720629236205099        0.0000000000000000                1
   32.679078753286198        58.917003256211302        0.0000000000000000                1
   32.731774834585302        59.113399486976000        0.0000000000000000                1
   32.784470915884398        59.309814229811401        0.0000000000000000                1
   32.837166997183502        59.506244675516001        0.0000000000000000                1
   32.889863078482598        59.702688635366002        0.0000000000000000                1
   32.942559159781702        59.899144367588399        0.0000000000000000                1
   32.995255241080798        60.095610461353800        0.0000000000000000                1
   33.047951322379902        60.292085755989497        0.0000000000000000                1
   33.100647403678998        60.488569284310799        0.0000000000000000                1
   33.153343484978102        60.685060230877397        0.0000000000000000                1
   33.206039566277198        60.881557901215601        0.0000000000000000                1
   33.240500210595599        60.986748069985097        0.0000000000000000                1
   33.286217199277800        61.087566062724498        0.0000000000000000                1
   33.342647079687502        61.182813135417398        0.0000000000000000                1
   33.409119051578003        61.271356755334899        0.0000000000000000                1
   33.484842941112099        61.352144075441601        0.0000000000000000                1
   33.568918593913999        61.424214460565203        0.0000000000000000                1
   33.660346575495801        61.486710916127798        0.0000000000000000                1
   33.758040051858302        61.538890283797798        0.0000000000000000                1
   33.860837709038897        61.580132082527903        0.0000000000000000                1
   33.967517558025797        61.609945890161299        0.0000000000000000                1
   34.076811460937300        61.627977177429202        0.0000000000000000                1
   34.187420205786900        61.634011525664199        0.0000000000000000                1
   0.0000000000000000        61.636912922104699        0.0000000000000000                1
   4.1539145779503199        61.636912922104699        0.0000000000000000                1
   7.7473125359654302        61.636912922104699        0.0000000000000000                1
   10.855828179959200        61.636912922104699        0.0000000000000000                1
   13.544890071197999        61.636912922104699        0.0000000000000000                1
   15.871098037654500        61.636912922104699        0.0000000000000000                1
   17.883414496727401        61.636912922104699        0.0000000000000000                1
   19.624195024456601        61.636912922104699        0.0000000000000000                1
   21.130079862826801        61.636912922104699        0.0000000000000000                1
   22.432765129758099        61.636912922104699        0.0000000000000000                1
   23.559669964337701        61.636912922104699        0.0000000000000000                1
   24.534513649482399        61.636912922104699        0.0000000000000000                1
   25.377814859403198        61.636912922104699        0.0000000000000000                1
   26.107323540118699        61.636912922104699        0.0000000000000000                1
   26.738394513311501        61.636912922104699        0.0000000000000000                1
   27.284310667202700        61.636912922104699        0.0000000000000000                1
   27.756562537022599        61.636912922104699        0.0000000000000000                1
   28.165090159733001        61.636912922104699        0.0000000000000000                1
   28.518492293600900        61.636912922104699        0.0000000000000000                1
   28.824207406311601        61.636912922104699        0.0000000000000000                1
   29.088670241090799        61.636912922104699        0.0000000000000000                1
   29.317447256264600        61.636912922104699        0.0000000000000000                1
   29.515353789012401        61.636912922104699        0.0000000000000000                1
   29.686555409395901        61.636912922104699        0.0000000000000000                1
   29.834655597979900        61.636912922104699        0.0000000000000000                1
   29.962771592498399        61.636912922104699        0.0000000000000000                1
   30.073599999999999        61.636912922104699        0.0000000000000000                1
   30.184208744849599        61.630877109493298        0.0000000000000000                1
   30.293502647761098        61.612841438921301        0.0000000000000000                1
   30.400182496747998        61.583020358615300        0.0000000000000000                1
   30.502980153928601        61.541768447336700        0.0000000000000000                1
   30.600673630291102        61.489576197117302        0.0000000000000000                1
   30.692101611872900        61.427064179732703        0.0000000000000000                1
   30.776177264674800        61.354975665802300        0.0000000000000000                1
   30.851901154208900        61.274167784538903        0.0000000000000000                1
   30.918373126099400        61.185601329039599        0.0000000000000000                1
   30.974803006509099        61.090329328528398        0.0000000000000000                1
   31.020519995191300        60.989484523243398        0.0000000000000000                1
   31.054980639509701        60.884265891056501        0.0000000000000000                1
   31.107676720808801        60.687713634299300        0.0000000000000000                1
   31.160372802107901        60.491166113287498        0.0000000000000000                1
   31.213068883407001        60.294623826857404        0.0000000000000000                1
   31.265764964706101        60.098087361854901        0.0000000000000000                1
   31.318461046005201        59.901557415748897        0.0000000000000000                1
   31.371157127304301        59.705034827348300        0.0000000000000000                1
   31.423853208603401        59.508520618636403        0.0000000000000000                1
   31.476549289902501        59.312016054487898        0.0000000000000000                1
   31.529245371201601        59.115522728690500        0.0000000000000000                1
   31.581941452500701        58.919042692955202        0.0000000000000000                1
   31.634637533799800        58.722578657527698        0.0000000000000000                1
   31.687333615098900        58.526134318034202        0.0000000000000000                1
   31.740029696397901        58.329714919670401        0.0000000000000000                1
   31.792725777697001        58.133328305439797        0.0000000000000000                1
   31.845421858996101        57.936987065200199        0.0000000000000000                1
   31.898117940295201        57.740713593663898        0.0000000000000000                1
   31.950814021594301        57.544554817724702        0.0000000000000000                1
   32.003510102893401        57.348645544690797        0.0000000000000000                1
   32.035260102893403        57.348645544690797        0.0000000000000000                1
   32.067010102893398        57.348645544690797        0.0000000000000000                1
   32.098760102893401        57.348645544690797        0.0000000000000000                1
   32.130510102893403        57.348645544690797        0.0000000000000000                1
   32.162260102893399        57.348645544690797        0.0000000000000000                1
   32.194010102893401        57.348645544690797        0.0000000000000000                1
   32.225760102893403        57.348645544690797        0.0000000000000000                1
   32.257510102893399        57.348645544690797        0.0000000000000000                1
   32.310206184192502        57.544554817724702        0.0000000000000000                1
   32.362902265491599        57.740713593663898        0.0000000000000000                1
   32.415598346790702        57.936987065200199        0.0000000000000000                1
   32.468294428089798        58.133328305439797        0.0000000000000000                1
   32.520990509388902        58.329714919670401        0.0000000000000000                1
   32.573686590687998        58.526134318034202        0.0000000000000000                1
   32.626382671987102        58.722578657527698        0.0000000000000000                1
   32.679078753286198        58.919042692955202        0.0000000000000000                1
   32.731774834585302        59.115522728690500        0.0000000000000000                1
   32.784470915884398        59.312016054487898        0.0000000000000000                1
   32.837166997183502        59.508520618636403        0.0000000000000000                1
   32.889863078482598        59.705034827348300        0.0000000000000000                1
   32.942559159781702        59.901557415748897        0.0000000000000000                1
   32.995255241080798        60.098087361854901        0.0000000000000000                1
   33.047951322379902        60.294623826857404        0.0000000000000000                1
   33.100647403678998        60.491166113287498        0.0000000000000000                1
   33.153343484978102        60.687713634299300        0.0000000000000000                1
   33.206039566277198        60.884265891056501        0.0000000000000000                1
   33.240500210595599        60.989484523243398        0.0000000000000000                1
   33.286217199277800        61.090329328528398        0.0000000000000000                1
   33.342647079687502        61.185601329039599        0.0000000000000000                1
   33.409119051578003        61.274167784538903        0.0000000000000000                1
   33.484842941112099        61.354975665802300        0.0000000000000000                1
   33.568918593913999        61.427064179732703        0.0000000000000000                1
   33.660346575495801        61.489576197117302        0.0000000000000000                1
   33.758040051858302        61.541768447336700        0.0000000000000000                1
   33.860837709038897        61.583020358615300        0.0000000000000000                1
   33.967517558025797        61.612841438921301        0.0000000000000000                1
   34.076811460937300        61.630877109493298        0.0000000000000000                1
   34.187420205786900        61.636912922104699        0.0000000000000000                1
   0.0000000000000000        61.639152920336102        0.0000000000000000                1
   4.1539145779503199        61.639152920336102        0.0000000000000000                1
   7.7473125359654302        61.639152920336102        0.0000000000000000                1
   10.855828179959200        61.639152920336102        0.0000000000000000                1
   13.544890071197999        61.639152920336102        0.0000000000000000                1
   15.871098037654500        61.639152920336102        0.0000000000000000                1
   17.883414496727401        61.639152920336102        0.0000000000000000                1
   19.624195024456601        61.639152920336102        0.0000000000000000                1
   21.130079862826801        61.639152920336102        0.0000000000000000                1
   22.432765129758099        61.639152920336102        0.0000000000000000                1
   23.559669964337701        61.639152920336102        0.0000000000000000                1
   24.534513649482399        61.639152920336102        0.0000000000000000                1
   25.377814859403198        61.639152920336102        0.0000000000000000                1
   26.107323540118699        61.639152920336102        0.0000000000000000                1
   26.738394513311501        61.639152920336102        0.0000000000000000                1
   27.284310667202700        61.639152920336102        0.0000000000000000                1
   27.756562537022599        61.639152920336102        0.0000000000000000                1
   28.165090159733001        61.639152920336102        0.0000000000000000                1
   28.518492293600900        61.639152920336102        0.0000000000000000                1
   28.824207406311601        61.639152920336102        0.0000000000000000                1
   29.088670241090799        61.639152920336102        0.0000000000000000                1
   29.317447256264600        61.639152920336102        0.0000000000000000                1
   29.515353789012401        61.639152920336102        0.0000000000000000                1
   29.686555409395901        61.639152920336102        0.0000000000000000                1
   29.834655597979900        61.639152920336102        0.0000000000000000                1
   29.962771592498399        61.639152920336102        0.0000000000000000                1
   30.073599999999999        61.639152920336102        0.0000000000000000                1
   30.184208744849599        61.633116090195699        0.0000000000000000                1
   30.293502647761098        61.615077373556602        0.0000000000000000                1
   30.400182496747998        61.585251238271702        0.0000000000000000                1
   30.502980153928601        61.543992295999800        0.0000000000000000                1
   30.600673630291102        61.491791085297102        0.0000000000000000                1
   30.692101611872900        61.429268238479999        0.0000000000000000                1
   30.776177264674800        61.357167101297101        0.0000000000000000                1
   30.851901154208900        61.276344893326304        0.0000000000000000                1
   30.918373126099400        61.187762514043698        0.0000000000000000                1
   30.974803006509099        61.092473115884900        0.0000000000000000                1
   31.020519995191300        60.991609580029397        0.0000000000000000                1
   31.054980639509701        60.886371043917201        0.0000000000000000                1
   31.107676720808801        60.689780557143997        0.0000000000000000                1
   31.160372802107901        60.493193330675702        0.0000000000000000                1
   31.213068883407001        60.296609714524699        0.0000000000000000                1
   31.265764964706101        60.100030121232003        0.0000000000000000                1
   31.318461046005201        59.903455042087998        0.0000000000000000                1
   31.371157127304301        59.706885069201498        0.0000000000000000                1
   31.423853208603401        59.510320925646802        0.0000000000000000                1
   31.476549289902501        59.313763508560001        0.0000000000000000                1
   31.529245371201601        59.117213951405901        0.0000000000000000                1
   31.581941452500701        58.920673717604899        0.0000000000000000                1
   31.634637533799800        58.724144746565997        0.0000000000000000                1
   31.687333615098900        58.527629692407302        0.0000000000000000                1
   31.740029696397901        58.331132337577003        0.0000000000000000                1
   31.792725777697001        58.134658364671303        0.0000000000000000                1
   31.845421858996101        57.938216946787698        0.0000000000000000                1
   31.898117940295201        57.741824513736802        0.0000000000000000                1
   31.950814021594301        57.545515806198502        0.0000000000000000                1
   32.003510102893401        57.349391997279000        0.0000000000000000                1
   32.035260102893403        57.349391997279000        0.0000000000000000                1
   32.067010102893398        57.349391997279000        0.0000000000000000                1
   32.098760102893401        57.349391997279000        0.0000000000000000                1
   32.130510102893403        57.349391997279000        0.0000000000000000                1
   32.162260102893399        57.349391997279000        0.0000000000000000                1
   32.194010102893401        57.349391997279000        0.0000000000000000                1
   32.225760102893403        57.349391997279000        0.0000000000000000                1
   32.257510102893399        57.349391997279000        0.0000000000000000                1
   32.310206184192502        57.545515806198502        0.0000000000000000                1
   32.362902265491599        57.741824513736802        0.0000000000000000                1
   32.415598346790702        57.938216946787698        0.0000000000000000                1
   32.468294428089798        58.134658364671303        0.0000000000000000                1
   32.520990509388902        58.331132337577003        0.0000000000000000                1
   32.573686590687998        58.527629692407302        0.0000000000000000                1
   32.626382671987102        58.724144746565997        0.0000000000000000                1
   32.679078753286198        58.920673717604899        0.0000000000000000                1
   32.731774834585302        59.117213951405901        0.0000000000000000                1
   32.784470915884398        59.313763508560001        0.0000000000000000                1
   32.837166997183502        59.510320925646802        0.0000000000000000                1
   32.889863078482598        59.706885069201498        0.0000000000000000                1
   32.942559159781702        59.903455042087998        0.0000000000000000                1
   32.995255241080798        60.100030121232003        0.0000000000000000                1
   33.047951322379902        60.296609714524699        0.0000000000000000                1
   33.100647403678998        60.493193330675702        0.0000000000000000                1
   33.153343484978102        60.689780557143997        0.0000000000000000                1
   33.206039566277198        60.886371043917201        0.0000000000000000                1
   33.240500210595599        60.991609580029397        0.0000000000000000                1
   33.286217199277800        61.092473115884900        0.0000000000000000                1
   33.342647079687502        61.187762514043698        0.0000000000000000                1
   33.409119051578003        61.276344893326304        0.0000000000000000                1
   33.484842941112099        61.357167101297101        0.0000000000000000                1
   33.568918593913999        61.429268238479999        0.0000000000000000                1
   33.660346575495801        61.491791085297102        0.0000000000000000                1
   33.758040051858302        61.543992295999800        0.0000000000000000                1
   33.860837709038897        61.585251238271702        0.0000000000000000                1
   33.967517558025797        61.615077373556602        0.0000000000000000                1
   34.076811460937300        61.633116090195699        0.0000000000000000                1
   34.187420205786900        61.639152920336102        0.0000000000000000                1
   0.0000000000000000        61.640882291754302        0.0000000000000000                1
   4.1539145779503199        61.640882291754302        0.0000000000000000                1
   7.7473125359654302        61.640882291754302        0.0000000000000000                1
   10.855828179959200        61.640882291754302        0.0000000000000000                1
   13.544890071197999        61.640882291754302        0.0000000000000000                1
   15.871098037654500        61.640882291754302        0.0000000000000000                1
   17.883414496727401        61.640882291754302        0.0000000000000000                1
   19.624195024456601        61.640882291754302        0.0000000000000000                1
   21.130079862826801        61.640882291754302        0.0000000000000000                1
   22.432765129758099        61.640882291754302        0.0000000000000000                1
   23.559669964337701        61.640882291754302        0.0000000000000000                1
   24.534513649482399        61.640882291754302        0.0000000000000000                1
   25.377814859403198        61.640882291754302        0.0000000000000000                1
   26.107323540118699        61.640882291754302        0.0000000000000000                1
   26.738394513311501        61.640882291754302        0.0000000000000000                1
   27.284310667202700        61.640882291754302        0.0000000000000000                1
   27.756562537022599        61.640882291754302        0.0000000000000000                1
   28.165090159733001        61.640882291754302        0.0000000000000000                1
   28.518492293600900        61.640882291754302        0.0000000000000000                1
   28.824207406311601        61.640882291754302        0.0000000000000000                1
   29.088670241090799        61.640882291754302        0.0000000000000000                1
   29.317447256264600        61.640882291754302        0.0000000000000000                1
   29.515353789012401        61.640882291754302        0.0000000000000000                1
   29.686555409395901        61.640882291754302        0.0000000000000000                1
   29.834655597979900        61.640882291754302        0.0000000000000000                1
   29.962771592498399        61.640882291754302        0.0000000000000000                1
   30.073599999999999        61.640882291754302        0.0000000000000000                1
   30.184208744849599        61.634844763307903        0.0000000000000000                1
   30.293502647761098        61.616803956013896        0.0000000000000000                1
   30.400182496747998        61.586974350567900        0.0000000000000000                1
   30.502980153928601        61.545710580179701        0.0000000000000000                1
   30.600673630291102        61.493503213939000        0.0000000000000000                1
   30.692101611872900        61.430972923986303        0.0000000000000000                1
   30.776177264674800        61.358863105632402        0.0000000000000000                1
   30.851901154208900        61.278031038267500        0.0000000000000000                1
   30.918373126099400        61.189437692046099        0.0000000000000000                1
   30.974803006509099        61.094136301606397        0.0000000000000000                1
   31.020519995191300        60.993259842583797        0.0000000000000000                1
   31.054980639509701        60.888007559867297        0.0000000000000000                1
   31.107676720808801        60.691390628952398        0.0000000000000000                1
   31.160372802107901        60.494775880152801        0.0000000000000000                1
   31.213068883407001        60.298163552078002        0.0000000000000000                1
   31.265764964706101        60.101553926485998        0.0000000000000000                1