 variables = x, y, z, active
 zone f = fepoint, et = brick, n =         9408 , e =         7410
   0.0000000000000000        61.362905589618002        0.0000000000000000                1
   4.1539145779503199        61.362905589618002        0.0000000000000000                1
   7.7473125359654302        61.362905589618002        0.0000000000000000                1
   10.855828179959200        61.362905589618002        0.0000000000000000                1
   13.544890071197999        61.362905589618002        0.0000000000000000                1
   15.871098037654500        61.362905589618002        0.0000000000000000                1
   17.883414496727401        61.362905589618002        0.0000000000000000                1
   19.624195024456601        61.362905589618002        0.0000000000000000                1
   21.130079862826801        61.362905589618002        0.0000000000000000                1
   22.432765129758099        61.362905589618002        0.0000000000000000                1
   23.559669964337701        61.362905589618002        0.0000000000000000                1
   24.534513649482399        61.362905589618002        0.0000000000000000                1
   25.377814859403198        61.362905589618002        0.0000000000000000                1
   26.107323540118699        61.362905589618002        0.0000000000000000                1
   26.738394513311501        61.362905589618002        0.0000000000000000                1
   27.284310667202700        61.362905589618002        0.0000000000000000                1
   27.756562537022599        61.362905589618002        0.0000000000000000                1
   28.165090159733001        61.362905589618002        0.0000000000000000                1
   28.518492293600900        61.362905589618002        0.0000000000000000                1
   28.824207406311601        61.362905589618002        0.0000000000000000                1
   29.088670241090799        61.362905589618002        0.0000000000000000                1
   29.317447256264600        61.362905589618002        0.0000000000000000                1
   29.515353789012401        61.362905589618002        0.0000000000000000                1
   29.686555409395901        61.362905589618002        0.0000000000000000                1
   29.834655597979900        61.362905589618002        0.0000000000000000                1
   29.962771592498399        61.362905589618002        0.0000000000000000                1
   30.073599999999999        61.362905589618002        0.0000000000000000                1
   30.184208744849599        61.357133573469703        0.0000000000000000                1
   30.293502647761098        61.339886763963896        0.0000000000000000                1
   30.400182496747998        61.311372034807299        0.0000000000000000                1
   30.502980153928601        61.271931384919696        0.0000000000000000                1
   30.600673630291102        61.222037768181600        0.0000000000000000                1
   30.692101611872900        61.162289353581897        0.0000000000000000                1
   30.776177264674800        61.093402245711303        0.0000000000000000                1
   30.851901154208900        61.016201780434997        0.0000000000000000                1
   30.918373126099400        60.931612484960802        0.0000000000000000                1
   30.974803006509099        60.840646843512801        0.0000000000000000                1
   31.020519995191300        60.744392990016003        0.0000000000000000                1
   31.054980639509701        60.644001490673197        0.0000000000000000                1
   31.107676720808801        60.456572678760303        0.0000000000000000                1
   31.160372802107901        60.269295187093299        0.0000000000000000                1
   31.213068883407001        60.082180733277497        0.0000000000000000                1
   31.265764964706101        59.895242743541900        0.0000000000000000                1
   31.318461046005201        59.708496732333003        0.0000000000000000                1
   31.371157127304301        59.521960813961698        0.0000000000000000                1
   31.423853208603401        59.335656351161099        0.0000000000000000                1
   31.476549289902501        59.149608890474298        0.0000000000000000                1
   31.529245371201601        58.963849432056001        0.0000000000000000                1
   31.581941452500701        58.778416275502202        0.0000000000000000                1
   31.634637533799800        58.593357769375601        0.0000000000000000                1
   31.687333615098900        58.408736586027899        0.0000000000000000                1
   31.740029696397901        58.224636724663497        0.0000000000000000                1
   31.792725777697001        58.041175757330201        0.0000000000000000                1
   31.845421858996101        57.858528236146100        0.0000000000000000                1
   31.898117940295201        57.676976254586599        0.0000000000000000                1
   31.950814021594301        57.497041250700001        0.0000000000000000                1
   32.003510102893401        57.319965377485801        0.0000000000000000                1
   32.035260102893403        57.319965377485801        0.0000000000000000                1
   32.067010102893398        57.319965377485801        0.0000000000000000                1
   32.098760102893401        57.319965377485801        0.0000000000000000                1
   32.130510102893403        57.319965377485801        0.0000000000000000                1
   32.162260102893399        57.319965377485801        0.0000000000000000                1
   32.194010102893401        57.319965377485801        0.0000000000000000                1
   32.225760102893403        57.319965377485801        0.0000000000000000                1
   32.257510102893399        57.319965377485801        0.0000000000000000                1
   32.310206184192502        57.497041250700001        0.0000000000000000                1
   32.362902265491599        57.676976254586599        0.0000000000000000                1
   32.415598346790702        57.858528236146100        0.0000000000000000                1
   32.468294428089798        58.041175757330201        0.0000000000000000                1
   32.520990509388902        58.224636724663497        0.0000000000000000                1
   32.573686590687998        58.408736586027899        0.0000000000000000                1
   32.626382671987102        58.593357769375601        0.0000000000000000                1
   32.679078753286198        58.778416275502202        0.0000000000000000                1
   32.731774834585302        58.963849432056001        0.0000000000000000                1
   32.784470915884398        59.149608890474298        0.0000000000000000                1
   32.837166997183502        59.335656351161099        0.0000000000000000                1
   32.889863078482598        59.521960813961698        0.0000000000000000                1
   32.942559159781702        59.708496732333003        0.0000000000000000                1
   32.995255241080798        59.895242743541900        0.0000000000000000                1
   33.047951322379902        60.082180733277497        0.0000000000000000                1
   33.100647403678998        60.269295187093299        0.0000000000000000                1
   33.153343484978102        60.456572678760303        0.0000000000000000                1
   33.206039566277198        60.644001490673197        0.0000000000000000                1
   33.240500210595599        60.744392990016003        0.0000000000000000                1
   33.286217199277800        60.840646843512801        0.0000000000000000                1
   33.342647079687502        60.931612484960802        0.0000000000000000                1
   33.409119051578003        61.016201780434997        0.0000000000000000                1
   33.484842941112099        61.093402245711303        0.0000000000000000                1
   33.568918593913999        61.162289353581897        0.0000000000000000                1
   33.660346575495801        61.222037768181600        0.0000000000000000                1
   33.758040051858302        61.271931384919696        0.0000000000000000                1
   33.860837709038897        61.311372034807299        0.0000000000000000                1
   33.967517558025797        61.339886763963896        0.0000000000000000                1
   34.076811460937300        61.357133573469703        0.0000000000000000                1
   34.187420205786900        61.362905589618002        0.0000000000000000                1
   0.0000000000000000        61.427607909932298        0.0000000000000000                1
   4.1539145779503199        61.427607909932298        0.0000000000000000                1
   7.7473125359654302        61.427607909932298        0.0000000000000000                1
   10.855828179959200        61.427607909932298        0.0000000000000000                1
   13.544890071197999        61.427607909932298        0.0000000000000000                1
   15.871098037654500        61.427607909932298        0.0000000000000000                1
   17.883414496727401        61.427607909932298        0.0000000000000000                1
   19.624195024456601        61.427607909932298        0.0000000000000000                1
   21.130079862826801        61.427607909932298        0.0000000000000000                1
   22.432765129758099        61.427607909932298        0.0000000000000000                1
   23.559669964337701        61.427607909932298        0.0000000000000000                1
   24.534513649482399        61.427607909932298        0.0000000000000000                1
   25.377814859403198        61.427607909932298        0.0000000000000000                1
   26.107323540118699        61.427607909932298        0.0000000000000000                1
   26.738394513311501        61.427607909932298        0.0000000000000000                1
   27.284310667202700        61.427607909932298        0.0000000000000000                1
   27.756562537022599        61.427607909932298        0.0000000000000000                1
   28.165090159733001        61.427607909932298        0.0000000000000000                1
   28.518492293600900        61.427607909932298        0.0000000000000000                1
   28.824207406311601        61.427607909932298        0.0000000000000000                1
   29.088670241090799        61.427607909932298        0.0000000000000000                1
   29.317447256264600        61.427607909932298        0.0000000000000000                1
   29.515353789012401        61.427607909932298        0.0000000000000000                1
   29.686555409395901        61.427607909932298        0.0000000000000000                1
   29.834655597979900        61.427607909932298        0.0000000000000000                1
   29.962771592498399        61.427607909932298        0.0000000000000000                1
   30.073599999999999        61.427607909932298        0.0000000000000000                1
   30.184208744849599        61.421764071925502        0.0000000000000000                1
   30.293502647761098        61.404302538732701        0.0000000000000000                1
   30.400182496747998        61.375432404847700        0.0000000000000000                1
   30.502980153928601        61.335499351668403        0.0000000000000000                1
   30.600673630291102        61.284981454387101        0.0000000000000000                1
   30.692101611872900        61.224483402725099        0.0000000000000000                1
   30.776177264674800        61.154729176228898        0.0000000000000000                1
   30.851901154208900        61.076553281918898        0.0000000000000000                1
   30.918373126099400        60.990890648086904        0.0000000000000000                1
   30.974803006509099        60.898765310519799        0.0000000000000000                1
   31.020519995191300        60.801278016974202        0.0000000000000000                1
   31.054980639509701        60.699592909751999        0.0000000000000000                1
   31.107676720808801        60.509728584118797        0.0000000000000000                1
   31.160372802107901        60.319989548851900        0.0000000000000000                1
   31.213068883407001        60.130385782447100        0.0000000000000000                1
   31.265764964706101        59.940928742654698        0.0000000000000000                1
   31.318461046005201        59.751631699352799        0.0000000000000000                1
   31.371157127304301        59.562510182427999        0.0000000000000000                1
   31.423853208603401        59.373582555605402        0.0000000000000000                1
   31.476549289902501        59.184870839154200        0.0000000000000000                1
   31.529245371201601        58.996401835277098        0.0000000000000000                1
   31.581941452500701        58.808208766712497        0.0000000000000000                1
   31.634637533799800        58.620333726287598        0.0000000000000000                1
   31.687333615098900        58.432831499747103        0.0000000000000000                1
   31.740029696397901        58.245775854570603        0.0000000000000000                1
   31.792725777697001        58.059270591373902        0.0000000000000000                1
   31.845421858996101        57.873470786044798        0.0000000000000000                1
   31.898117940295201        57.688628992316303        0.0000000000000000                1
   31.950814021594301        57.505216752508296        0.0000000000000000                1
   32.003510102893401        57.324374172158201        0.0000000000000000                1
   32.035260102893403        57.324374172158201        0.0000000000000000                1
   32.067010102893398        57.324374172158201        0.0000000000000000                1
   32.098760102893401        57.324374172158201        0.0000000000000000                1
   32.130510102893403        57.324374172158201        0.0000000000000000                1
   32.162260102893399        57.324374172158201        0.0000000000000000                1
   32.194010102893401        57.324374172158201        0.0000000000000000                1
   32.225760102893403        57.324374172158201        0.0000000000000000                1
   32.257510102893399        57.324374172158201        0.0000000000000000                1
   32.310206184192502        57.505216752508296        0.0000000000000000                1
   32.362902265491599        57.688628992316303        0.0000000000000000                1
   32.415598346790702        57.873470786044798        0.0000000000000000                1
   32.468294428089798        58.059270591373902        0.0000000000000000                1
   32.520990509388902        58.245775854570603        0.0000000000000000                1
   32.573686590687998        58.432831499747103        0.0000000000000000                1
   32.626382671987102        58.620333726287598        0.0000000000000000                1
   32.679078753286198        58.808208766712497        0.0000000000000000                1
   32.731774834585302        58.996401835277098        0.0000000000000000                1
   32.784470915884398        59.184870839154200        0.0000000000000000                1
   32.837166997183502        59.373582555605402        0.0000000000000000                1
   32.889863078482598        59.562510182427999        0.0000000000000000                1
   32.942559159781702        59.751631699352799        0.0000000000000000                1
   32.995255241080798        59.940928742654698        0.0000000000000000                1
   33.047951322379902        60.130385782447100        0.0000000000000000                1
   33.100647403678998        60.319989548851900        0.0000000000000000                1
   33.153343484978102        60.509728584118797        0.0000000000000000                1
   33.206039566277198        60.699592909751999        0.0000000000000000                1
   33.240500210595599        60.801278016974202        0.0000000000000000                1
   33.286217199277800        60.898765310519799        0.0000000000000000                1
   33.342647079687502        60.990890648086904        0.0000000000000000                1
   33.409119051578003        61.076553281918898        0.0000000000000000                1
   33.484842941112099        61.154729176228898        0.0000000000000000                1
   33.568918593913999        61.224483402725099        0.0000000000000000                1
   33.660346575495801        61.284981454387101        0.0000000000000000                1
   33.758040051858302        61.335499351668403        0.0000000000000000                1
   33.860837709038897        61.375432404847700        0.0000000000000000                1
   33.967517558025797        61.404302538732701        0.0000000000000000                1
   34.076811460937300        61.421764071925502        0.0000000000000000                1
   34.187420205786900        61.427607909932298        0.0000000000000000                1
   0.0000000000000000        61.477560781265403        0.0000000000000000                1
   4.1539145779503199        61.477560781265403        0.0000000000000000                1
   7.7473125359654302        61.477560781265403        0.0000000000000000                1
   10.855828179959200        61.477560781265403        0.0000000000000000                1
   13.544890071197999        61.477560781265403        0.0000000000000000                1
   15.871098037654500        61.477560781265403        0.0000000000000000                1
   17.883414496727401        61.477560781265403        0.0000000000000000                1
   19.624195024456601        61.477560781265403        0.0000000000000000                1
   21.130079862826801        61.477560781265403        0.0000000000000000                1
   22.432765129758099        61.477560781265403        0.0000000000000000                1
   23.559669964337701        61.477560781265403        0.0000000000000000                1
   24.534513649482399        61.477560781265403        0.0000000000000000                1
   25.377814859403198        61.477560781265403        0.0000000000000000                1
   26.107323540118699        61.477560781265403        0.0000000000000000                1
   26.738394513311501        61.477560781265403        0.0000000000000000                1
   27.284310667202700        61.477560781265403        0.0000000000000000                1
   27.756562537022599        61.477560781265403        0.0000000000000000                1
   28.165090159733001        61.477560781265403        0.0000000000000000                1
   28.518492293600900        61.477560781265403        0.0000000000000000                1
   28.824207406311601        61.477560781265403        0.0000000000000000                1
   29.088670241090799        61.477560781265403        0.0000000000000000                1
   29.317447256264600        61.477560781265403        0.0000000000000000                1
   29.515353789012401        61.477560781265403        0.0000000000000000                1
   29.686555409395901        61.477560781265403        0.0000000000000000                1
   29.834655597979900        61.477560781265403        0.0000000000000000                1
   29.962771592498399        61.477560781265403        0.0000000000000000                1
   30.073599999999999        61.477560781265403        0.0000000000000000                1
   30.184208744849599        61.471664012902600        0.0000000000000000                1
   30.293502647761098        61.454044219431502        0.0000000000000000                1
   30.400182496747998        61.424912084759498        0.0000000000000000                1
   30.502980153928601        61.384615927552701        0.0000000000000000                1
   30.600673630291102        61.333637494433603        0.0000000000000000                1
   30.692101611872900        61.272586156011300        0.0000000000000000                1
   30.776177264674800        61.202191554327001        0.0000000000000000                1
   30.851901154208900        61.123294804214503        0.0000000000000000                1
   30.918373126099400        61.036838345622400        0.0000000000000000                1
   30.974803006509099        60.943854579374303        0.0000000000000000                1
   31.020519995191300        60.845453415254298        0.0000000000000000                1
   31.054980639509701        60.742808889791299        0.0000000000000000                1
   31.107676720808801        60.551135463377499        0.0000000000000000                1
   31.160372802107901        60.359564157947098        0.0000000000000000                1
   31.213068883407001        60.168103331574898        0.0000000000000000                1
   31.265764964706101        59.976762601600399        0.0000000000000000                1
   31.318461046005201        59.785553131546301        0.0000000000000000                1
   31.371157127304301        59.594488016817301        0.0000000000000000                1
   31.423853208603401        59.403582783259800        0.0000000000000000                1
   31.476549289902501        59.212856099049702        0.0000000000000000                1
   31.529245371201601        59.022330754905497        0.0000000000000000                1
   31.581941452500701        58.832035094095403        0.0000000000000000                1
   31.634637533799800        58.642005157664201        0.0000000000000000                1
   31.687333615098900        58.452288044893699        0.0000000000000000                1
   31.740029696397901        58.262947464556603        0.0000000000000000                1
   31.792725777697001        58.074073537952401        0.0000000000000000                1
   31.845421858996101        57.885801746745102        0.0000000000000000                1
   31.898117940295201        57.698354429061602        0.0000000000000000                1
   31.950814021594301        57.512150876947800        0.0000000000000000                1
   32.003510102893401        57.328219981470298        0.0000000000000000                1
   32.035260102893403        57.328219981470298        0.0000000000000000                1
   32.067010102893398        57.328219981470298        0.0000000000000000                1
   32.098760102893401        57.328219981470298        0.0000000000000000                1
   32.130510102893403        57.328219981470298        0.0000000000000000                1
   32.162260102893399        57.328219981470298        0.0000000000000000                1
   32.194010102893401        57.328219981470298        0.0000000000000000                1
   32.225760102893403        57.328219981470298        0.0000000000000000                1
   32.257510102893399        57.328219981470298        0.0000000000000000                1
   32.310206184192502        57.512150876947800        0.0000000000000000                1
   32.362902265491599        57.698354429061602        0.0000000000000000                1
   32.415598346790702        57.885801746745102        0.0000000000000000                1
   32.468294428089798        58.074073537952401        0.0000000000000000                1
   32.520990509388902        58.262947464556603        0.0000000000000000                1
   32.573686590687998        58.452288044893699        0.0000000000000000                1
   32.626382671987102        58.642005157664201        0.0000000000000000                1
   32.679078753286198        58.832035094095403        0.0000000000000000                1
   32.731774834585302        59.022330754905497        0.0000000000000000                1
   32.784470915884398        59.212856099049702        0.0000000000000000                1
   32.837166997183502        59.403582783259800        0.0000000000000000                1
   32.889863078482598        59.594488016817301        0.0000000000000000                1
   32.942559159781702        59.785553131546301        0.0000000000000000                1
   32.995255241080798        59.976762601600399        0.0000000000000000                1
   33.047951322379902        60.168103331574898        0.0000000000000000                1
   33.100647403678998        60.359564157947098        0.0000000000000000                1
   33.153343484978102        60.551135463377499        0.0000000000000000                1
   33.206039566277198        60.742808889791299        0.0000000000000000                1
   33.240500210595599        60.845453415254298        0.0000000000000000                1
   33.286217199277800        60.943854579374303        0.0000000000000000                1
   33.342647079687502        61.036838345622400        0.0000000000000000                1
   33.409119051578003        61.123294804214503        0.0000000000000000                1
   33.484842941112099        61.202191554327001        0.0000000000000000                1
   33.568918593913999        61.272586156011300        0.0000000000000000                1
   33.660346575495801        61.333637494433603        0.0000000000000000                1
   33.758040051858302        61.384615927552701        0.0000000000000000                1
   33.860837709038897        61.424912084759498        0.0000000000000000                1
   33.967517558025797        61.454044219431502        0.0000000000000000                1
   34.076811460937300        61.471664012902600        0.0000000000000000                1
   34.187420205786900        61.477560781265403        0.0000000000000000                1
   0.0000000000000000        61.516126467044600        0.0000000000000000                1
   4.1539145779503199        61.516126467044600        0.0000000000000000                1
   7.7473125359654302        61.516126467044600        0.0000000000000000                1
   10.855828179959200        61.516126467044600        0.0000000000000000                1
   13.544890071197999        61.516126467044600        0.0000000000000000                1
   15.871098037654500        61.516126467044600        0.0000000000000000                1
   17.883414496727401        61.516126467044600        0.0000000000000000                1
   19.624195024456601        61.516126467044600        0.0000000000000000                1
   21.130079862826801        61.516126467044600        0.0000000000000000                1
   22.432765129758099        61.516126467044600        0.0000000000000000                1
   23.559669964337701        61.516126467044600        0.0000000000000000                1
   24.534513649482399        61.516126467044600        0.0000000000000000                1
   25.377814859403198        61.516126467044600        0.0000000000000000                1
   26.107323540118699        61.516126467044600        0.0000000000000000                1
   26.738394513311501        61.516126467044600        0.0000000000000000                1
   27.284310667202700        61.516126467044600        0.0000000000000000                1
   27.756562537022599        61.516126467044600        0.0000000000000000                1
   28.165090159733001        61.516126467044600        0.0000000000000000                1
   28.518492293600900        61.516126467044600        0.0000000000000000                1
   28.824207406311601        61.516126467044600        0.0000000000000000                1
   29.088670241090799        61.516126467044600        0.0000000000000000                1
   29.317447256264600        61.516126467044600        0.0000000000000000                1
   29.515353789012401        61.516126467044600        0.0000000000000000                1
   29.686555409395901        61.516126467044600        0.0000000000000000                1
   29.834655597979900        61.516126467044600        0.0000000000000000                1
   29.962771592498399        61.516126467044600        0.0000000000000000                1
   30.073599999999999        61.516126467044600        0.0000000000000000                1
   30.184208744849599        61.510190779197302        0.0000000000000000                1
   30.293502647761098        61.492454605825401        0.0000000000000000                1
   30.400182496747998        61.463129764779502        0.0000000000000000                1
   30.502980153928601        61.422566457512801        0.0000000000000000                1
   30.600673630291102        61.371249054476003        0.0000000000000000                1
   30.692101611872900        61.309790276109403        0.0000000000000000                1
   30.776177264674800        61.238923823751200        0.0000000000000000                1
   30.851901154208900        61.159495559005798        0.0000000000000000                1
   30.918373126099400        61.072453330930301        0.0000000000000000                1
   30.974803006509099        60.978835580603700        0.0000000000000000                1
   31.020519995191300        60.879758854093900        0.0000000000000000                1
   31.054980639509701        60.776404379197899        0.0000000000000000                1
   31.107676720808801        60.583390198545302        0.0000000000000000                1
   31.160372802107901        60.390458119932397        0.0000000000000000                1
   31.213068883407001        60.197615043246500        0.0000000000000000                1
   31.265764964706101        60.004868924584997        0.0000000000000000                1