 variables = x, y, z, active
 zone f = fepoint, et = brick, n =         9975 , e =         7896
   51.653309773784002        57.170604834866502        0.0000000000000000                1
   51.762603676695498        57.170576558707303        0.0000000000000000                1
   51.869283525682398        57.170529643804301        0.0000000000000000                1
   51.972081182863000        57.170464409728098        0.0000000000000000                1
   52.069774659225502        57.170381307596301        0.0000000000000000                1
   52.161202640807304        57.170280923057597        0.0000000000000000                1
   52.245278293609204        57.170163980787699        0.0000000000000000                1
   52.321002183143300        57.170031349494003        0.0000000000000000                1
   52.387474155033800        57.169884047937700        0.0000000000000000                1
   52.443904035443502        57.169723251148298        0.0000000000000000                1
   52.489621024125697        57.169550297193901        0.0000000000000000                1
   52.524081668444097        57.169366693768701        0.0000000000000000                1
   52.576777749743201        57.169014578764397        0.0000000000000000                1
   52.629473831042297        57.168649626438700        0.0000000000000000                1
   52.682169912341401        57.168270564340702        0.0000000000000000                1
   52.734865993640497        57.167875904187802        0.0000000000000000                1
   52.787562074939601        57.167463888052303        0.0000000000000000                1
   52.840258156238697        57.167032415591599        0.0000000000000000                1
   52.892954237537801        57.166578945939598        0.0000000000000000                1
   52.945650318836897        57.166100358165700        0.0000000000000000                1
   52.998346400136001        57.165592752218203        0.0000000000000000                1
   53.051042481435097        57.165051152730300        0.0000000000000000                1
   53.103738562734200        57.164469052717997        0.0000000000000000                1
   53.156434644033297        57.163837677769699        0.0000000000000000                1
   53.209130725332400        57.163144730506701        0.0000000000000000                1
   53.261826806631497        57.162372088655701        0.0000000000000000                1
   53.314522887930600        57.161491158386902        0.0000000000000000                1
   53.367218969229697        57.160452143064703        0.0000000000000000                1
   53.419915050528800        57.159153554226997        0.0000000000000000                1
   53.472611131827897        57.157315776237397        0.0000000000000000                1
   53.504361131827899        57.157315776237397        0.0000000000000000                1
   53.536111131827901        57.157315776237397        0.0000000000000000                1
   53.567861131827897        57.157315776237397        0.0000000000000000                1
   53.599611131827899        57.157315776237397        0.0000000000000000                1
   53.631361131827902        57.157315776237397        0.0000000000000000                1
   53.663111131827897        57.157315776237397        0.0000000000000000                1
   53.694861131827899        57.157315776237397        0.0000000000000000                1
   53.726611131827902        57.157315776237397        0.0000000000000000                1
   53.779307213126998        57.159153554226997        0.0000000000000000                1
   53.832003294426102        57.160452143064703        0.0000000000000000                1
   53.884699375725198        57.161491158386902        0.0000000000000000                1
   53.937395457024301        57.162372088655701        0.0000000000000000                1
   53.990091538323398        57.163144730506701        0.0000000000000000                1
   54.042787619622501        57.163837677769699        0.0000000000000000                1
   54.095483700921598        57.164469052717997        0.0000000000000000                1
   54.148179782220701        57.165051152730300        0.0000000000000000                1
   54.200875863519698        57.165592752218203        0.0000000000000000                1
   54.253571944818802        57.166100358165700        0.0000000000000000                1
   54.306268026117898        57.166578945939598        0.0000000000000000                1
   54.358964107417002        57.167032415591599        0.0000000000000000                1
   54.411660188716098        57.167463888052303        0.0000000000000000                1
   54.464356270015202        57.167875904187802        0.0000000000000000                1
   54.517052351314298        57.168270564340702        0.0000000000000000                1
   54.569748432613402        57.168649626438700        0.0000000000000000                1
   54.622444513912498        57.169014578764397        0.0000000000000000                1
   54.675140595211602        57.169366693768701        0.0000000000000000                1
   54.709601239530002        57.169550297193901        0.0000000000000000                1
   54.755318228212197        57.169723251148298        0.0000000000000000                1
   54.811748108621899        57.169884047937700        0.0000000000000000                1
   54.878220080512399        57.170031349494003        0.0000000000000000                1
   54.953943970046502        57.170163980787699        0.0000000000000000                1
   55.038019622848402        57.170280923057597        0.0000000000000000                1
   55.129447604430197        57.170381307596301        0.0000000000000000                1
   55.227141080792798        57.170464409728098        0.0000000000000000                1
   55.329938737973301        57.170529643804301        0.0000000000000000                1
   55.436618586960201        57.170576558707303        0.0000000000000000                1
   55.545912489871696        57.170604834866502        0.0000000000000000                1
   55.656521234721303        57.170614281402301        0.0000000000000000                1
   55.789449395515398        57.170614281402301        0.0000000000000000                1
   55.941652804283997        57.170614281402301        0.0000000000000000                1
   56.115926468362197        57.170614281402301        0.0000000000000000                1
   56.315470685124303        57.170614281402301        0.0000000000000000                1
   56.543949811065801        57.170614281402301        0.0000000000000000                1
   56.805559552696202        57.170614281402301        0.0000000000000000                1
   57.105104014948097        57.170614281402301        0.0000000000000000                1
   57.448083921990602        57.170614281402301        0.0000000000000000                1
   57.840797630501399        57.170614281402301        0.0000000000000000                1
   58.290456790369497        57.170614281402301        0.0000000000000000                1
   58.805318776776900        57.170614281402301        0.0000000000000000                1
   59.394838325594897        57.170614281402301        0.0000000000000000                1
   60.069841156671202        57.170614281402301        0.0000000000000000                1
   60.842722773361700        57.170614281402301        0.0000000000000000                1
   61.727676088987899        57.170614281402301        0.0000000000000000                1
   62.740952060269699        57.170614281402301        0.0000000000000000                1
   63.901158113908103        57.170614281402301        0.0000000000000000                1
   65.229599846515796        57.170614281402301        0.0000000000000000                1
   66.750672272745106        57.170614281402301        0.0000000000000000                1
   68.492307806351405        57.170614281402301        0.0000000000000000                1
   70.486489200750597        57.170614281402301        0.0000000000000000                1
   72.769836868522106        57.170614281402301        0.0000000000000000                1
   75.384281365176506        57.170614281402301        0.0000000000000000                1
   78.377833386432002        57.170614281402301        0.0000000000000000                1
   81.805465418946198        57.170614281402301        0.0000000000000000                1
   85.730121234812003        57.170614281402301        0.0000000000000000                1
   51.653309773784002        57.176905700876297        0.0000000000000000                1
   51.762603676695498        57.176865046478298        0.0000000000000000                1
   51.869283525682398        57.176797606300497        0.0000000000000000                1
   51.972081182863000        57.176703857884497        0.0000000000000000                1
   52.069774659225502        57.176584474364503        0.0000000000000000                1
   52.161202640807304        57.176440327979698        0.0000000000000000                1
   52.245278293609204        57.176272495525303        0.0000000000000000                1
   52.321002183143300        57.176082264295601        0.0000000000000000                1
   52.387474155033800        57.175871139244698        0.0000000000000000                1
   52.443904035443502        57.175640850178297        0.0000000000000000                1
   52.489621024125697        57.175393359506202        0.0000000000000000                1
   52.524081668444097        57.175130869507399        0.0000000000000000                1
   52.576777749743201        57.174628164287697        0.0000000000000000                1
   52.629473831042297        57.174108115274102        0.0000000000000000                1
   52.682169912341401        57.173569039965699        0.0000000000000000                1
   52.734865993640497        57.173008974373403        0.0000000000000000                1
   52.787562074939601        57.172425603567298        0.0000000000000000                1
   52.840258156238697        57.171816167884799        0.0000000000000000                1
   52.892954237537801        57.171177336961698        0.0000000000000000                1
   52.945650318836897        57.170505030719902        0.0000000000000000                1
   52.998346400136001        57.169794164905902        0.0000000000000000                1
   53.051042481435097        57.169038273445402        0.0000000000000000                1
   53.103738562734200        57.168228928515703        0.0000000000000000                1
   53.156434644033297        57.167354808661898        0.0000000000000000                1
   53.209130725332400        57.166400114936700        0.0000000000000000                1
   53.261826806631497        57.165341680158498        0.0000000000000000                1
   53.314522887930600        57.164143164399597        0.0000000000000000                1
   53.367218969229697        57.162741735846097        0.0000000000000000                1
   53.419915050528800        57.161010543220101        0.0000000000000000                1
   53.472611131827897        57.158605007221503        0.0000000000000000                1
   53.504361131827899        57.158605007221503        0.0000000000000000                1
   53.536111131827901        57.158605007221503        0.0000000000000000                1
   53.567861131827897        57.158605007221503        0.0000000000000000                1
   53.599611131827899        57.158605007221503        0.0000000000000000                1
   53.631361131827902        57.158605007221503        0.0000000000000000                1
   53.663111131827897        57.158605007221503        0.0000000000000000                1
   53.694861131827899        57.158605007221503        0.0000000000000000                1
   53.726611131827902        57.158605007221503        0.0000000000000000                1
   53.779307213126998        57.161010543220101        0.0000000000000000                1
   53.832003294426102        57.162741735846097        0.0000000000000000                1
   53.884699375725198        57.164143164399597        0.0000000000000000                1
   53.937395457024301        57.165341680158498        0.0000000000000000                1
   53.990091538323398        57.166400114936700        0.0000000000000000                1
   54.042787619622501        57.167354808661898        0.0000000000000000                1
   54.095483700921598        57.168228928515703        0.0000000000000000                1
   54.148179782220701        57.169038273445402        0.0000000000000000                1
   54.200875863519698        57.169794164905902        0.0000000000000000                1
   54.253571944818802        57.170505030719902        0.0000000000000000                1
   54.306268026117898        57.171177336961698        0.0000000000000000                1
   54.358964107417002        57.171816167884799        0.0000000000000000                1
   54.411660188716098        57.172425603567298        0.0000000000000000                1
   54.464356270015202        57.173008974373403        0.0000000000000000                1
   54.517052351314298        57.173569039965699        0.0000000000000000                1
   54.569748432613402        57.174108115274102        0.0000000000000000                1
   54.622444513912498        57.174628164287697        0.0000000000000000                1
   54.675140595211602        57.175130869507399        0.0000000000000000                1
   54.709601239530002        57.175393359506202        0.0000000000000000                1
   54.755318228212197        57.175640850178297        0.0000000000000000                1
   54.811748108621899        57.175871139244698        0.0000000000000000                1
   54.878220080512399        57.176082264295601        0.0000000000000000                1
   54.953943970046502        57.176272495525303        0.0000000000000000                1
   55.038019622848402        57.176440327979698        0.0000000000000000                1
   55.129447604430197        57.176584474364503        0.0000000000000000                1
   55.227141080792798        57.176703857884497        0.0000000000000000                1
   55.329938737973301        57.176797606300497        0.0000000000000000                1
   55.436618586960201        57.176865046478298        0.0000000000000000                1
   55.545912489871696        57.176905700876297        0.0000000000000000                1
   55.656521234721303        57.176919283991602        0.0000000000000000                1
   55.789449395515398        57.176919283991602        0.0000000000000000                1
   55.941652804283997        57.176919283991602        0.0000000000000000                1
   56.115926468362197        57.176919283991602        0.0000000000000000                1
   56.315470685124303        57.176919283991602        0.0000000000000000                1
   56.543949811065801        57.176919283991602        0.0000000000000000                1
   56.805559552696202        57.176919283991602        0.0000000000000000                1
   57.105104014948097        57.176919283991602        0.0000000000000000                1
   57.448083921990602        57.176919283991602        0.0000000000000000                1
   57.840797630501399        57.176919283991602        0.0000000000000000                1
   58.290456790369497        57.176919283991602        0.0000000000000000                1
   58.805318776776900        57.176919283991602        0.0000000000000000                1
   59.394838325594897        57.176919283991602        0.0000000000000000                1
   60.069841156671202        57.176919283991602        0.0000000000000000                1
   60.842722773361700        57.176919283991602        0.0000000000000000                1
   61.727676088987899        57.176919283991602        0.0000000000000000                1
   62.740952060269699        57.176919283991602        0.0000000000000000                1
   63.901158113908103        57.176919283991602        0.0000000000000000                1
   65.229599846515796        57.176919283991602        0.0000000000000000                1
   66.750672272745106        57.176919283991602        0.0000000000000000                1
   68.492307806351405        57.176919283991602        0.0000000000000000                1
   70.486489200750597        57.176919283991602        0.0000000000000000                1
   72.769836868522106        57.176919283991602        0.0000000000000000                1
   75.384281365176506        57.176919283991602        0.0000000000000000                1
   78.377833386432002        57.176919283991602        0.0000000000000000                1
   81.805465418946198        57.176919283991602        0.0000000000000000                1
   85.730121234812003        57.176919283991602        0.0000000000000000                1
   51.653309773784002        57.185066594515497        0.0000000000000000                1
   51.762603676695498        57.185008675848998        0.0000000000000000                1
   51.869283525682398        57.184912614271902        0.0000000000000000                1
   51.972081182863000        57.184779116100202        0.0000000000000000                1
   52.069774659225502        57.184609175556098        0.0000000000000000                1
   52.161202640807304        57.184404078622798        0.0000000000000000                1
   52.245278293609204        57.184165409321203        0.0000000000000000                1
   52.321002183143300        57.183895056342102        0.0000000000000000                1
   52.387474155033800        57.183595221063399        0.0000000000000000                1
   52.443904035443502        57.183268425269297        0.0000000000000000                1
   52.489621024125697        57.182917519334801        0.0000000000000000                1
   52.524081668444097        57.182545689415200        0.0000000000000000                1
   52.576777749743201        57.181834580857803        0.0000000000000000                1
   52.629473831042297        57.181100341198899        0.0000000000000000                1
   52.682169912341401        57.180340775773900        0.0000000000000000                1
   52.734865993640497        57.179553327866003        0.0000000000000000                1
   52.787562074939601        57.178734990325403        0.0000000000000000                1
   52.840258156238697        57.177882186365899        0.0000000000000000                1
   52.892954237537801        57.176990610115098        0.0000000000000000                1
   52.945650318836897        57.176055000173001        0.0000000000000000                1
   52.998346400136001        57.175068818916500        0.0000000000000000                1
   53.051042481435097        57.174023777797302        0.0000000000000000                1
   53.103738562734200        57.172909110721903        0.0000000000000000                1
   53.156434644033297        57.171710410581497        0.0000000000000000                1
   53.209130725332400        57.170407659623500        0.0000000000000000                1
   53.261826806631497        57.168971651065696        0.0000000000000000                1
   53.314522887930600        57.167356841998597        0.0000000000000000                1
   53.367218969229697        57.165485059862100        0.0000000000000000                1
   53.419915050528800        57.163199978527103        0.0000000000000000                1
   53.472611131827897        57.160082967836097        0.0000000000000000                1
   53.504361131827899        57.160082967836097        0.0000000000000000                1
   53.536111131827901        57.160082967836097        0.0000000000000000                1
   53.567861131827897        57.160082967836097        0.0000000000000000                1
   53.599611131827899        57.160082967836097        0.0000000000000000                1
   53.631361131827902        57.160082967836097        0.0000000000000000                1
   53.663111131827897        57.160082967836097        0.0000000000000000                1
   53.694861131827899        57.160082967836097        0.0000000000000000                1
   53.726611131827902        57.160082967836097        0.0000000000000000                1
   53.779307213126998        57.163199978527103        0.0000000000000000                1
   53.832003294426102        57.165485059862100        0.0000000000000000                1
   53.884699375725198        57.167356841998597        0.0000000000000000                1
   53.937395457024301        57.168971651065696        0.0000000000000000                1
   53.990091538323398        57.170407659623500        0.0000000000000000                1
   54.042787619622501        57.171710410581497        0.0000000000000000                1
   54.095483700921598        57.172909110721903        0.0000000000000000                1
   54.148179782220701        57.174023777797302        0.0000000000000000                1
   54.200875863519698        57.175068818916500        0.0000000000000000                1
   54.253571944818802        57.176055000173001        0.0000000000000000                1
   54.306268026117898        57.176990610115098        0.0000000000000000                1
   54.358964107417002        57.177882186365899        0.0000000000000000                1
   54.411660188716098        57.178734990325403        0.0000000000000000                1
   54.464356270015202        57.179553327866003        0.0000000000000000                1
   54.517052351314298        57.180340775773900        0.0000000000000000                1
   54.569748432613402        57.181100341198899        0.0000000000000000                1
   54.622444513912498        57.181834580857803        0.0000000000000000                1
   54.675140595211602        57.182545689415200        0.0000000000000000                1
   54.709601239530002        57.182917519334801        0.0000000000000000                1
   54.755318228212197        57.183268425269297        0.0000000000000000                1
   54.811748108621899        57.183595221063399        0.0000000000000000                1
   54.878220080512399        57.183895056342102        0.0000000000000000                1
   54.953943970046502        57.184165409321203        0.0000000000000000                1
   55.038019622848402        57.184404078622798        0.0000000000000000                1
   55.129447604430197        57.184609175556098        0.0000000000000000                1
   55.227141080792798        57.184779116100202        0.0000000000000000                1
   55.329938737973301        57.184912614271902        0.0000000000000000                1
   55.436618586960201        57.185008675848998        0.0000000000000000                1
   55.545912489871696        57.185066594515497        0.0000000000000000                1
   55.656521234721303        57.185085947613302        0.0000000000000000                1
   55.789449395515398        57.185085947613302        0.0000000000000000                1
   55.941652804283997        57.185085947613302        0.0000000000000000                1
   56.115926468362197        57.185085947613302        0.0000000000000000                1
   56.315470685124303        57.185085947613302        0.0000000000000000                1
   56.543949811065801        57.185085947613302        0.0000000000000000                1
   56.805559552696202        57.185085947613302        0.0000000000000000                1
   57.105104014948097        57.185085947613302        0.0000000000000000                1
   57.448083921990602        57.185085947613302        0.0000000000000000                1
   57.840797630501399        57.185085947613302        0.0000000000000000                1
   58.290456790369497        57.185085947613302        0.0000000000000000                1
   58.805318776776900        57.185085947613302        0.0000000000000000                1
   59.394838325594897        57.185085947613302        0.0000000000000000                1
   60.069841156671202        57.185085947613302        0.0000000000000000                1
   60.842722773361700        57.185085947613302        0.0000000000000000                1
   61.727676088987899        57.185085947613302        0.0000000000000000                1
   62.740952060269699        57.185085947613302        0.0000000000000000                1
   63.901158113908103        57.185085947613302        0.0000000000000000                1
   65.229599846515796        57.185085947613302        0.0000000000000000                1
   66.750672272745106        57.185085947613302        0.0000000000000000                1
   68.492307806351405        57.185085947613302        0.0000000000000000                1
   70.486489200750597        57.185085947613302        0.0000000000000000                1
   72.769836868522106        57.185085947613302        0.0000000000000000                1
   75.384281365176506        57.185085947613302        0.0000000000000000                1
   78.377833386432002        57.185085947613302        0.0000000000000000                1
   81.805465418946198        57.185085947613302        0.0000000000000000                1
   85.730121234812003        57.185085947613302        0.0000000000000000                1
   51.653309773784002        57.195636599477801        0.0000000000000000                1
   51.762603676695498        57.195554724715500        0.0000000000000000                1
   51.869283525682398        57.195418955752999        0.0000000000000000                1
   51.972081182863000        57.195230328068902        0.0000000000000000                1
   52.069774659225502        57.194990297266898        0.0000000000000000                1
   52.161202640807304        57.194700742847203        0.0000000000000000                1
   52.245278293609204        57.194363974908100        0.0000000000000000                1
   52.321002183143300        57.193982740859603        0.0000000000000000                1
   52.387474155033800        57.193560233601801        0.0000000000000000                1
   52.443904035443502        57.193100098803399        0.0000000000000000                1
   52.489621024125697        57.192606442385902        0.0000000000000000                1
   52.524081668444097        57.192083836195899        0.0000000000000000                1
   52.576777749743201        57.191085787517800        0.0000000000000000                1
   52.629473831042297        57.190057256722099        0.0000000000000000                1
   52.682169912341401        57.188995417052098        0.0000000000000000                1
   52.734865993640497        57.187896982070498        0.0000000000000000                1
   52.787562074939601        57.186758094661698        0.0000000000000000                1
   52.840258156238697        57.185574177497102        0.0000000000000000                1
   52.892954237537801        57.184339733883299        0.0000000000000000                1
   52.945650318836897        57.183048065049398        0.0000000000000000                1
   52.998346400136001        57.181690871306799        0.0000000000000000                1
   53.051042481435097        57.180257663204699        0.0000000000000000                1
   53.103738562734200        57.178734863130302        0.0000000000000000                1
   53.156434644033297        57.177104371927499        0.0000000000000000                1
   53.209130725332400        57.175341152045704        0.0000000000000000                1
   53.261826806631497        57.173408856915302        0.0000000000000000                1
   53.314522887930600        57.171251148293898        0.0000000000000000                1
   53.367218969229697        57.168772031553203        0.0000000000000000                1
   53.419915050528800        57.165781376145098        0.0000000000000000                1
   53.472611131827897        57.161777286080898        0.0000000000000000                1
   53.504361131827899        57.161777286080898        0.0000000000000000                1
   53.536111131827901        57.161777286080898        0.0000000000000000                1
   53.567861131827897        57.161777286080898        0.0000000000000000                1
   53.599611131827899        57.161777286080898        0.0000000000000000                1
   53.631361131827902        57.161777286080898        0.0000000000000000                1
   53.663111131827897        57.161777286080898        0.0000000000000000                1
   53.694861131827899        57.161777286080898        0.0000000000000000                1
   53.726611131827902        57.161777286080898        0.0000000000000000                1
   53.779307213126998        57.165781376145098        0.0000000000000000                1
   53.832003294426102        57.168772031553203        0.0000000000000000                1
   53.884699375725198        57.171251148293898        0.0000000000000000                1
   53.937395457024301        57.173408856915302        0.0000000000000000                1
   53.990091538323398        57.175341152045704        0.0000000000000000                1
   54.042787619622501        57.177104371927499        0.0000000000000000                1
   54.095483700921598        57.178734863130302        0.0000000000000000                1
   54.148179782220701        57.180257663204699        0.0000000000000000                1