 variables = x, y, z, active
 zone f = fepoint, et = brick, n =         3024 , e =         2130
   51.689951797990801        61.586636777503301        0.0000000000000000                1
   51.834093113369100        61.554743756253600        0.0000000000000000                1
   51.972081182863199        61.502338361406999        0.0000000000000000                1
   52.101002150654601        61.430528392128203        0.0000000000000000                1
   52.218133628398398        61.340831805244100        0.0000000000000000                1
   52.321002183143598        61.235144588815402        0.0000000000000000                1
   52.407435568130701        61.115700630966600        0.0000000000000000                1
   52.475608593525003        60.985024431144602        0.0000000000000000                1
   52.524081668444403        60.845877653048902        0.0000000000000000                1
   52.587316966003300        60.610427540153800        0.0000000000000000                1
   52.650552263562197        60.375008765818599        0.0000000000000000                1
   52.713787561121102        60.139625656621597        0.0000000000000000                1
   52.777022858679999        59.904283541794697        0.0000000000000000                1
   52.840258156239003        59.668989096221097        0.0000000000000000                1
   52.903493453797900        59.433750845975602        0.0000000000000000                1
   52.966728751356797        59.198579939660199        0.0000000000000000                1
   53.029964048915701        58.963491374913900        0.0000000000000000                1
   53.093199346474599        58.728506049771603        0.0000000000000000                1
   53.156434644033503        58.493654417725502        0.0000000000000000                1
   53.219669941592500        58.258983555278903        0.0000000000000000                1
   53.282905239151397        58.024572423068200        0.0000000000000000                1
   53.346140536710301        57.790570488710102        0.0000000000000000                1
   53.409375834269198        57.557323689344301        0.0000000000000000                1
   53.472611131828103        57.326057065376098        0.0000000000000000                1
   53.557277798494802        57.326057065376098        0.0000000000000000                1
   53.641944465161501        57.326057065376098        0.0000000000000000                1
   53.726611131828101        57.326057065376098        0.0000000000000000                1
   53.789846429386998        57.557323689344301        0.0000000000000000                1
   53.853081726946002        57.790570488710102        0.0000000000000000                1
   53.916317024504899        58.024572423068200        0.0000000000000000                1
   53.979552322063803        58.258983555278903        0.0000000000000000                1
   54.042787619622700        58.493654417725502        0.0000000000000000                1
   54.106022917181598        58.728506049771603        0.0000000000000000                1
   54.169258214740601        58.963491374913900        0.0000000000000000                1
   54.232493512299499        59.198579939660199        0.0000000000000000                1
   54.295728809858403        59.433750845975602        0.0000000000000000                1
   54.358964107417300        59.668989096221097        0.0000000000000000                1
   54.422199404976197        59.904283541794697        0.0000000000000000                1
   54.485434702535201        60.139625656621597        0.0000000000000000                1
   54.548670000094098        60.375008765818599        0.0000000000000000                1
   54.611905297653003        60.610427540153800        0.0000000000000000                1
   54.675140595211900        60.845877653048902        0.0000000000000000                1
   54.723613670131201        60.985024431144602        0.0000000000000000                1
   54.791786695525602        61.115700630966600        0.0000000000000000                1
   54.878220080512698        61.235144588815402        0.0000000000000000                1
   54.981088635257798        61.340831805244100        0.0000000000000000                1
   55.098220113001702        61.430528392128203        0.0000000000000000                1
   55.227141080793103        61.502338361406999        0.0000000000000000                1
   55.365129150287103        61.554743756253600        0.0000000000000000                1
   55.509270465665402        61.586636777503301        0.0000000000000000                1
   55.656521234721602        61.597343227576502        0.0000000000000000                1
   55.833690430531597        61.597343227576502        0.0000000000000000                1
   56.044900414419097        61.597343227576502        0.0000000000000000                1
   56.296691687105003        61.597343227576502        0.0000000000000000                1
   56.596861422616001        61.597343227576502        0.0000000000000000                1
   56.954704921938301        61.597343227576502        0.0000000000000000                1
   57.381303458893598        61.597343227576502        0.0000000000000000                1
   57.889867431907000        61.597343227576502        0.0000000000000000                1
   58.496145447985498        61.597343227576502        0.0000000000000000                1
   59.218912006933799        61.597343227576502        0.0000000000000000                1
   60.080548887836997        61.597343227576502        0.0000000000000000                1
   61.107738241496101        61.597343227576502        0.0000000000000000                1
   62.332288851684297        61.597343227576502        0.0000000000000000                1
   63.792121151902897        61.597343227576502        0.0000000000000000                1
   65.532441500470696        61.597343227576502        0.0000000000000000                1
   67.607142077506595        61.597343227576502        0.0000000000000000                1
   70.080469754158301        61.597343227576502        0.0000000000000000                1
   73.029015613643793        61.597343227576502        0.0000000000000000                1
   76.544086733237094        61.597343227576502        0.0000000000000000                1
   80.734533673735001        61.597343227576502        0.0000000000000000                1
   85.730121234751394        61.597343227576502        0.0000000000000000                1
   51.689951797990801        61.605829632610302        0.0000000000000000                1
   51.834093113369100        61.573898380049002        0.0000000000000000                1
   51.972081182863199        61.521429698590303        0.0000000000000000                1
   52.101002150654601        61.449532047158002        0.0000000000000000                1
   52.218133628398398        61.359724329051801        0.0000000000000000                1
   52.321002183143598        61.253903788276297        0.0000000000000000                1
   52.407435568130701        61.134305907331502        0.0000000000000000                1
   52.475608593525003        61.003457152985597        0.0000000000000000                1
   52.524081668444403        60.864121567934497        0.0000000000000000                1
   52.587316966003300        60.628339071108400        0.0000000000000000                1
   52.650552263562197        60.392569987122599        0.0000000000000000                1
   52.713787561121102        60.156816245747102        0.0000000000000000                1
   52.777022858679999        59.921080236797600        0.0000000000000000                1
   52.840258156239003        59.685364971051797        0.0000000000000000                1
   52.903493453797900        59.449674318878500        0.0000000000000000                1
   52.966728751356797        59.214013376775902        0.0000000000000000                1
   53.029964048915701        58.978389054555400        0.0000000000000000                1
   53.093199346474599        58.742811065637703        0.0000000000000000                1
   53.156434644033503        58.507293708392503        0.0000000000000000                1
   53.219669941592500        58.271859348959602        0.0000000000000000                1
   53.282905239151397        58.036546042516100        0.0000000000000000                1
   53.346140536710301        57.801427147428299        0.0000000000000000                1
   53.409375834269198        57.566676787743603        0.0000000000000000                1
   53.472611131828103        57.332939020945801        0.0000000000000000                1
   53.557277798494802        57.332939020945801        0.0000000000000000                1
   53.641944465161501        57.332939020945801        0.0000000000000000                1
   53.726611131828101        57.332939020945801        0.0000000000000000                1
   53.789846429386998        57.566676787743603        0.0000000000000000                1
   53.853081726946002        57.801427147428299        0.0000000000000000                1
   53.916317024504899        58.036546042516100        0.0000000000000000                1
   53.979552322063803        58.271859348959602        0.0000000000000000                1
   54.042787619622700        58.507293708392503        0.0000000000000000                1
   54.106022917181598        58.742811065637703        0.0000000000000000                1
   54.169258214740601        58.978389054555400        0.0000000000000000                1
   54.232493512299499        59.214013376775902        0.0000000000000000                1
   54.295728809858403        59.449674318878500        0.0000000000000000                1
   54.358964107417300        59.685364971051797        0.0000000000000000                1
   54.422199404976197        59.921080236797600        0.0000000000000000                1
   54.485434702535201        60.156816245747102        0.0000000000000000                1
   54.548670000094098        60.392569987122599        0.0000000000000000                1
   54.611905297653003        60.628339071108400        0.0000000000000000                1
   54.675140595211900        60.864121567934497        0.0000000000000000                1
   54.723613670131201        61.003457152985597        0.0000000000000000                1
   54.791786695525602        61.134305907331502        0.0000000000000000                1
   54.878220080512698        61.253903788276297        0.0000000000000000                1
   54.981088635257798        61.359724329051801        0.0000000000000000                1
   55.098220113001702        61.449532047158002        0.0000000000000000                1
   55.227141080793103        61.521429698590303        0.0000000000000000                1
   55.365129150287103        61.573898380049002        0.0000000000000000                1
   55.509270465665402        61.605829632610302        0.0000000000000000                1
   55.656521234721602        61.616548869352599        0.0000000000000000                1
   55.833690430531597        61.616548869352599        0.0000000000000000                1
   56.044900414419097        61.616548869352599        0.0000000000000000                1
   56.296691687105003        61.616548869352599        0.0000000000000000                1
   56.596861422616001        61.616548869352599        0.0000000000000000                1
   56.954704921938301        61.616548869352599        0.0000000000000000                1
   57.381303458893598        61.616548869352599        0.0000000000000000                1
   57.889867431907000        61.616548869352599        0.0000000000000000                1
   58.496145447985498        61.616548869352599        0.0000000000000000                1
   59.218912006933799        61.616548869352599        0.0000000000000000                1
   60.080548887836997        61.616548869352599        0.0000000000000000                1
   61.107738241496101        61.616548869352599        0.0000000000000000                1
   62.332288851684297        61.616548869352599        0.0000000000000000                1
   63.792121151902897        61.616548869352599        0.0000000000000000                1
   65.532441500470696        61.616548869352599        0.0000000000000000                1
   67.607142077506595        61.616548869352599        0.0000000000000000                1
   70.080469754158301        61.616548869352599        0.0000000000000000                1
   73.029015613643793        61.616548869352599        0.0000000000000000                1
   76.544086733237094        61.616548869352599        0.0000000000000000                1
   80.734533673735001        61.616548869352599        0.0000000000000000                1
   85.730121234751394        61.616548869352599        0.0000000000000000                1
   51.689951797990801        61.619269907880600        0.0000000000000000                1
   51.834093113369100        61.587320801102599        0.0000000000000000                1
   51.972081182863199        61.534822538343803        0.0000000000000000                1
   52.101002150654601        61.462883848620997        0.0000000000000000                1
   52.218133628398398        61.373024026433903        0.0000000000000000                1
   52.321002183143598        61.267140841281297        0.0000000000000000                1
   52.407435568130701        61.147470452454598        0.0000000000000000                1
   52.475608593525003        61.016540175439197        0.0000000000000000                1
   52.524081668444403        60.877115097294599        0.0000000000000000                1
   52.587316966003300        60.641174298853798        0.0000000000000000                1
   52.650552263562197        60.405237312254201        0.0000000000000000                1
   52.713787561121102        60.169304707477998        0.0000000000000000                1
   52.777022858679999        59.933377194088401        0.0000000000000000                1
   52.840258156239003        59.697455671102901        0.0000000000000000                1
   52.903493453797900        59.461541301396799        0.0000000000000000                1
   52.966728751356797        59.225635626737002        0.0000000000000000                1
   53.029964048915701        58.989740753404597        0.0000000000000000                1
   53.093199346474599        58.753859667814297        0.0000000000000000                1
   53.156434644033503        58.517996809555598        0.0000000000000000                1
   53.219669941592500        58.282159204015102        0.0000000000000000                1
   53.282905239151397        58.046358973427402        0.0000000000000000                1
   53.346140536710301        57.810619906916202        0.0000000000000000                1
   53.409375834269198        57.574999894069997        0.0000000000000000                1
   53.472611131828103        57.339722560319402        0.0000000000000000                1
   53.557277798494802        57.339722560319402        0.0000000000000000                1
   53.641944465161501        57.339722560319402        0.0000000000000000                1
   53.726611131828101        57.339722560319402        0.0000000000000000                1
   53.789846429386998        57.574999894069997        0.0000000000000000                1
   53.853081726946002        57.810619906916202        0.0000000000000000                1
   53.916317024504899        58.046358973427402        0.0000000000000000                1
   53.979552322063803        58.282159204015102        0.0000000000000000                1
   54.042787619622700        58.517996809555598        0.0000000000000000                1
   54.106022917181598        58.753859667814297        0.0000000000000000                1
   54.169258214740601        58.989740753404597        0.0000000000000000                1
   54.232493512299499        59.225635626737002        0.0000000000000000                1
   54.295728809858403        59.461541301396799        0.0000000000000000                1
   54.358964107417300        59.697455671102901        0.0000000000000000                1
   54.422199404976197        59.933377194088401        0.0000000000000000                1
   54.485434702535201        60.169304707477998        0.0000000000000000                1
   54.548670000094098        60.405237312254201        0.0000000000000000                1
   54.611905297653003        60.641174298853798        0.0000000000000000                1
   54.675140595211900        60.877115097294599        0.0000000000000000                1
   54.723613670131201        61.016540175439197        0.0000000000000000                1
   54.791786695525602        61.147470452454598        0.0000000000000000                1
   54.878220080512698        61.267140841281297        0.0000000000000000                1
   54.981088635257798        61.373024026433903        0.0000000000000000                1
   55.098220113001702        61.462883848620997        0.0000000000000000                1
   55.227141080793103        61.534822538343803        0.0000000000000000                1
   55.365129150287103        61.587320801102599        0.0000000000000000                1
   55.509270465665402        61.619269907880600        0.0000000000000000                1
   55.656521234721602        61.629995113416200        0.0000000000000000                1
   55.833690430531597        61.629995113416200        0.0000000000000000                1
   56.044900414419097        61.629995113416200        0.0000000000000000                1
   56.296691687105003        61.629995113416200        0.0000000000000000                1
   56.596861422616001        61.629995113416200        0.0000000000000000                1
   56.954704921938301        61.629995113416200        0.0000000000000000                1
   57.381303458893598        61.629995113416200        0.0000000000000000                1
   57.889867431907000        61.629995113416200        0.0000000000000000                1
   58.496145447985498        61.629995113416200        0.0000000000000000                1
   59.218912006933799        61.629995113416200        0.0000000000000000                1
   60.080548887836997        61.629995113416200        0.0000000000000000                1
   61.107738241496101        61.629995113416200        0.0000000000000000                1
   62.332288851684297        61.629995113416200        0.0000000000000000                1
   63.792121151902897        61.629995113416200        0.0000000000000000                1
   65.532441500470696        61.629995113416200        0.0000000000000000                1
   67.607142077506595        61.629995113416200        0.0000000000000000                1
   70.080469754158301        61.629995113416200        0.0000000000000000                1
   73.029015613643793        61.629995113416200        0.0000000000000000                1
   76.544086733237094        61.629995113416200        0.0000000000000000                1
   80.734533673735001        61.629995113416200        0.0000000000000000                1
   85.730121234751394        61.629995113416200        0.0000000000000000                1
   51.689951797990801        61.628681795707301        0.0000000000000000                1
   51.834093113369100        61.596726435421601        0.0000000000000000                1
   51.972081182863199        61.544217802538299        0.0000000000000000                1
   52.101002150654601        61.472264707304603        0.0000000000000000                1
   52.218133628398398        61.382386563289899        0.0000000000000000                1
   52.321002183143598        61.276481302350597        0.0000000000000000                1
   52.407435568130701        61.156785296529002        0.0000000000000000                1
   52.475608593525003        61.025826133204902        0.0000000000000000                1
   52.524081668444403        60.886369240733302        0.0000000000000000                1
   52.587316966003300        60.650371897411603        0.0000000000000000                1
   52.650552263562197        60.414374554090003        0.0000000000000000                1
   52.713787561121102        60.178377210768403        0.0000000000000000                1
   52.777022858679999        59.942379867446803        0.0000000000000000                1
   52.840258156239003        59.706382524125203        0.0000000000000000                1
   52.903493453797900        59.470385180803603        0.0000000000000000                1
   52.966728751356797        59.234387837481997        0.0000000000000000                1
   53.029964048915701        58.998390494160297        0.0000000000000000                1
   53.093199346474599        58.762393150838697        0.0000000000000000                1
   53.156434644033503        58.526395807517098        0.0000000000000000                1
   53.219669941592500        58.290398464195498        0.0000000000000000                1
   53.282905239151397        58.054401120873898        0.0000000000000000                1
   53.346140536710301        57.818403777552298        0.0000000000000000                1
   53.409375834269198        57.582406434230698        0.0000000000000000                1
   53.472611131828103        57.346409090908999        0.0000000000000000                1
   53.557277798494802        57.346409090908999        0.0000000000000000                1
   53.641944465161501        57.346409090908999        0.0000000000000000                1
   53.726611131828101        57.346409090908999        0.0000000000000000                1
   53.789846429386998        57.582406434230698        0.0000000000000000                1
   53.853081726946002        57.818403777552298        0.0000000000000000                1
   53.916317024504899        58.054401120873898        0.0000000000000000                1
   53.979552322063803        58.290398464195498        0.0000000000000000                1
   54.042787619622700        58.526395807517098        0.0000000000000000                1
   54.106022917181598        58.762393150838697        0.0000000000000000                1
   54.169258214740601        58.998390494160297        0.0000000000000000                1
   54.232493512299499        59.234387837481997        0.0000000000000000                1
   54.295728809858403        59.470385180803603        0.0000000000000000                1
   54.358964107417300        59.706382524125203        0.0000000000000000                1
   54.422199404976197        59.942379867446803        0.0000000000000000                1
   54.485434702535201        60.178377210768403        0.0000000000000000                1
   54.548670000094098        60.414374554090003        0.0000000000000000                1
   54.611905297653003        60.650371897411603        0.0000000000000000                1
   54.675140595211900        60.886369240733302        0.0000000000000000                1
   54.723613670131201        61.025826133204902        0.0000000000000000                1
   54.791786695525602        61.156785296529002        0.0000000000000000                1
   54.878220080512698        61.276481302350597        0.0000000000000000                1
   54.981088635257798        61.382386563289899        0.0000000000000000                1
   55.098220113001702        61.472264707304603        0.0000000000000000                1
   55.227141080793103        61.544217802538299        0.0000000000000000                1
   55.365129150287103        61.596726435421601        0.0000000000000000                1
   55.509270465665402        61.628681795707301        0.0000000000000000                1
   55.656521234721602        61.639409090909098        0.0000000000000000                1
   55.833690430531597        61.639409090909098        0.0000000000000000                1
   56.044900414419097        61.639409090909098        0.0000000000000000                1
   56.296691687105003        61.639409090909098        0.0000000000000000                1
   56.596861422616001        61.639409090909098        0.0000000000000000                1
   56.954704921938301        61.639409090909098        0.0000000000000000                1
   57.381303458893598        61.639409090909098        0.0000000000000000                1
   57.889867431907000        61.639409090909098        0.0000000000000000                1
   58.496145447985498        61.639409090909098        0.0000000000000000                1
   59.218912006933799        61.639409090909098        0.0000000000000000                1
   60.080548887836997        61.639409090909098        0.0000000000000000                1
   61.107738241496101        61.639409090909098        0.0000000000000000                1
   62.332288851684297        61.639409090909098        0.0000000000000000                1
   63.792121151902897        61.639409090909098        0.0000000000000000                1
   65.532441500470696        61.639409090909098        0.0000000000000000                1
   67.607142077506595        61.639409090909098        0.0000000000000000                1
   70.080469754158301        61.639409090909098        0.0000000000000000                1
   73.029015613643793        61.639409090909098        0.0000000000000000                1
   76.544086733237094        61.639409090909098        0.0000000000000000                1
   80.734533673735001        61.639409090909098        0.0000000000000000                1
   85.730121234751394        61.639409090909098        0.0000000000000000                1
   51.689951797990801        61.635272704798197        0.0000000000000000                1
   51.834093113369100        61.603317344512497        0.0000000000000000                1
   51.972081182863199        61.550808711629202        0.0000000000000000                1
   52.101002150654601        61.478855616395499        0.0000000000000000                1
   52.218133628398398        61.388977472380802        0.0000000000000000                1
   52.321002183143598        61.283072211441500        0.0000000000000000                1
   52.407435568130701        61.163376205619898        0.0000000000000000                1
   52.475608593525003        61.032417042295798        0.0000000000000000                1
   52.524081668444403        60.892960149824198        0.0000000000000000                1
   52.587316966003300        60.656962806502598        0.0000000000000000                1
   52.650552263562197        60.420965463180899        0.0000000000000000                1
   52.713787561121102        60.184968119859299        0.0000000000000000                1
   52.777022858679999        59.948970776537699        0.0000000000000000                1
   52.840258156239003        59.712973433216099        0.0000000000000000                1
   52.903493453797900        59.476976089894499        0.0000000000000000                1
   52.966728751356797        59.240978746572900        0.0000000000000000                1
   53.029964048915701        59.004981403251200        0.0000000000000000                1
   53.093199346474599        58.768984059929601        0.0000000000000000                1
   53.156434644033503        58.532986716608001        0.0000000000000000                1
   53.219669941592500        58.296989373286401        0.0000000000000000                1
   53.282905239151397        58.060992029964801        0.0000000000000000                1
   53.346140536710301        57.824994686643201        0.0000000000000000                1
   53.409375834269198        57.588997343321601        0.0000000000000000                1
   53.472611131828103        57.353000000000002        0.0000000000000000                1
   53.557277798494802        57.353000000000002        0.0000000000000000                1
   53.641944465161501        57.353000000000002        0.0000000000000000                1
   53.726611131828101        57.353000000000002        0.0000000000000000                1
   53.789846429386998        57.588997343321601        0.0000000000000000                1
   53.853081726946002        57.824994686643201        0.0000000000000000                1
   53.916317024504899        58.060992029964801        0.0000000000000000                1
   53.979552322063803        58.296989373286401        0.0000000000000000                1
   54.042787619622700        58.532986716608001        0.0000000000000000                1
   54.106022917181598        58.768984059929601        0.0000000000000000                1
   54.169258214740601        59.004981403251200        0.0000000000000000                1
   54.232493512299499        59.240978746572900        0.0000000000000000                1
   54.295728809858403        59.476976089894499        0.0000000000000000                1
   54.358964107417300        59.712973433216099        0.0000000000000000                1
   54.422199404976197        59.948970776537699        0.0000000000000000                1
   54.485434702535201        60.184968119859299        0.0000000000000000                1
   54.548670000094098        60.420965463180899        0.0000000000000000                1
   54.611905297653003        60.656962806502598        0.0000000000000000                1
   54.675140595211900        60.892960149824198        0.0000000000000000                1
   54.723613670131201        61.032417042295798        0.0000000000000000                1
   54.791786695525602        61.163376205619898        0.0000000000000000                1