 variables = x, y, z, active
 zone f = fepoint, et = brick, n =         3626 , e =         2628
   34.277420205786903        57.149999999999999        0.0000000000000000                1
   34.367420205786900        57.149999999999999        0.0000000000000000                1
   34.514670974843099        57.149999999999999        0.0000000000000000                1
   34.658812290221398        57.149999999999999        0.0000000000000000                1
   34.796800359715398        57.149999999999999        0.0000000000000000                1
   34.925721327506800        57.149999999999999        0.0000000000000000                1
   35.042852805250703        57.149999999999999        0.0000000000000000                1
   35.145721359995797        57.149999999999999        0.0000000000000000                1
   35.232154744982900        57.149999999999999        0.0000000000000000                1
   35.300327770377301        57.149999999999999        0.0000000000000000                1
   35.348800845296601        57.149999999999999        0.0000000000000000                1
   35.412036142855499        57.149999999999999        0.0000000000000000                1
   35.475271440414403        57.149999999999999        0.0000000000000000                1
   35.538506737973300        57.149999999999999        0.0000000000000000                1
   35.601742035532297        57.149999999999999        0.0000000000000000                1
   35.664977333091201        57.149999999999999        0.0000000000000000                1
   35.728212630650098        57.149999999999999        0.0000000000000000                1
   35.791447928209003        57.149999999999999        0.0000000000000000                1
   35.854683225767900        57.149999999999999        0.0000000000000000                1
   35.917918523326897        57.149999999999999        0.0000000000000000                1
   35.981153820885801        57.149999999999999        0.0000000000000000                1
   36.044389118444698        57.149999999999999        0.0000000000000000                1
   36.107624416003603        57.149999999999999        0.0000000000000000                1
   36.170859713562500        57.149999999999999        0.0000000000000000                1
   36.234095011121397        57.149999999999999        0.0000000000000000                1
   36.297330308680401        57.149999999999999        0.0000000000000000                1
   36.381996975347001        57.149999999999999        0.0000000000000000                1
   36.466663642013700        57.149999999999999        0.0000000000000000                1
   36.551330308680399        57.149999999999999        0.0000000000000000                1
   36.614565606239303        57.149999999999999        0.0000000000000000                1
   36.677800903798200        57.149999999999999        0.0000000000000000                1
   36.741036201357097        57.149999999999999        0.0000000000000000                1
   36.804271498916002        57.149999999999999        0.0000000000000000                1
   36.867506796474899        57.149999999999999        0.0000000000000000                1
   36.930742094033903        57.149999999999999        0.0000000000000000                1
   36.993977391592800        57.149999999999999        0.0000000000000000                1
   37.057212689151697        57.149999999999999        0.0000000000000000                1
   37.120447986710602        57.149999999999999        0.0000000000000000                1
   37.183683284269499        57.149999999999999        0.0000000000000000                1
   37.246918581828503        57.149999999999999        0.0000000000000000                1
   37.310153879387400        57.149999999999999        0.0000000000000000                1
   37.373389176946297        57.149999999999999        0.0000000000000000                1
   37.436624474505201        57.149999999999999        0.0000000000000000                1
   37.499859772064099        57.149999999999999        0.0000000000000000                1
   37.548332846983499        57.149999999999999        0.0000000000000000                1
   37.616505872377800        57.149999999999999        0.0000000000000000                1
   37.702939257364903        57.149999999999999        0.0000000000000000                1
   37.805807812110103        57.149999999999999        0.0000000000000000                1
   37.922939289853900        57.149999999999999        0.0000000000000000                1
   38.051860257645302        57.149999999999999        0.0000000000000000                1
   38.189848327139401        57.149999999999999        0.0000000000000000                1
   38.333989642517700        57.149999999999999        0.0000000000000000                1
   38.481240411573800        57.149999999999999        0.0000000000000000                1
   38.571240411573797        57.149999999999999        0.0000000000000000                1
   38.661240411573800        57.149999999999999        0.0000000000000000                1
   38.808491180630000        57.149999999999999        0.0000000000000000                1
   38.952632496008299        57.149999999999999        0.0000000000000000                1
   39.090620565502398        57.149999999999999        0.0000000000000000                1
   39.219541533293800        57.149999999999999        0.0000000000000000                1
   39.336673011037597        57.149999999999999        0.0000000000000000                1
   39.439541565782697        57.149999999999999        0.0000000000000000                1
   39.525974950769800        57.149999999999999        0.0000000000000000                1
   39.594147976164201        57.149999999999999        0.0000000000000000                1
   39.642621051083502        57.149999999999999        0.0000000000000000                1
   39.705856348642399        57.149999999999999        0.0000000000000000                1
   39.769091646201403        57.149999999999999        0.0000000000000000                1
   39.832326943760300        57.149999999999999        0.0000000000000000                1
   39.895562241319197        57.149999999999999        0.0000000000000000                1
   39.958797538878102        57.149999999999999        0.0000000000000000                1
   40.022032836436999        57.149999999999999        0.0000000000000000                1
   40.085268133996003        57.149999999999999        0.0000000000000000                1
   40.148503431554900        57.149999999999999        0.0000000000000000                1
   34.277420205786903        57.156590909090902        0.0000000000000000                1
   34.367420205786900        57.156590909090902        0.0000000000000000                1
   34.514670974843099        57.156590909090902        0.0000000000000000                1
   34.658812290221398        57.156590909090902        0.0000000000000000                1
   34.796800359715398        57.156590909090902        0.0000000000000000                1
   34.925721327506800        57.156590909090902        0.0000000000000000                1
   35.042852805250703        57.156590909090902        0.0000000000000000                1
   35.145721359995797        57.156590909090902        0.0000000000000000                1
   35.232154744982900        57.156590909090902        0.0000000000000000                1
   35.300327770377301        57.156590909090902        0.0000000000000000                1
   35.348800845296601        57.156590909090902        0.0000000000000000                1
   35.412036142855499        57.156590909090902        0.0000000000000000                1
   35.475271440414403        57.156590909090902        0.0000000000000000                1
   35.538506737973300        57.156590909090902        0.0000000000000000                1
   35.601742035532297        57.156590909090902        0.0000000000000000                1
   35.664977333091201        57.156590909090902        0.0000000000000000                1
   35.728212630650098        57.156590909090902        0.0000000000000000                1
   35.791447928209003        57.156590909090902        0.0000000000000000                1
   35.854683225767900        57.156590909090902        0.0000000000000000                1
   35.917918523326897        57.156590909090902        0.0000000000000000                1
   35.981153820885801        57.156590909090902        0.0000000000000000                1
   36.044389118444698        57.156590909090902        0.0000000000000000                1
   36.107624416003603        57.156590909090902        0.0000000000000000                1
   36.170859713562500        57.156590909090902        0.0000000000000000                1
   36.234095011121397        57.156590909090902        0.0000000000000000                1
   36.297330308680401        57.156590909090902        0.0000000000000000                1
   36.381996975347001        57.156590909090902        0.0000000000000000                1
   36.466663642013700        57.156590909090902        0.0000000000000000                1
   36.551330308680399        57.156590909090902        0.0000000000000000                1
   36.614565606239303        57.156590909090902        0.0000000000000000                1
   36.677800903798200        57.156590909090902        0.0000000000000000                1
   36.741036201357097        57.156590909090902        0.0000000000000000                1
   36.804271498916002        57.156590909090902        0.0000000000000000                1
   36.867506796474899        57.156590909090902        0.0000000000000000                1
   36.930742094033903        57.156590909090902        0.0000000000000000                1
   36.993977391592800        57.156590909090902        0.0000000000000000                1
   37.057212689151697        57.156590909090902        0.0000000000000000                1
   37.120447986710602        57.156590909090902        0.0000000000000000                1
   37.183683284269499        57.156590909090902        0.0000000000000000                1
   37.246918581828503        57.156590909090902        0.0000000000000000                1
   37.310153879387400        57.156590909090902        0.0000000000000000                1
   37.373389176946297        57.156590909090902        0.0000000000000000                1
   37.436624474505201        57.156590909090902        0.0000000000000000                1
   37.499859772064099        57.156590909090902        0.0000000000000000                1
   37.548332846983499        57.156590909090902        0.0000000000000000                1
   37.616505872377800        57.156590909090902        0.0000000000000000                1
   37.702939257364903        57.156590909090902        0.0000000000000000                1
   37.805807812110103        57.156590909090902        0.0000000000000000                1
   37.922939289853900        57.156590909090902        0.0000000000000000                1
   38.051860257645302        57.156590909090902        0.0000000000000000                1
   38.189848327139401        57.156590909090902        0.0000000000000000                1
   38.333989642517700        57.156590909090902        0.0000000000000000                1
   38.481240411573800        57.156590909090902        0.0000000000000000                1
   38.571240411573797        57.156590909090902        0.0000000000000000                1
   38.661240411573800        57.156590909090902        0.0000000000000000                1
   38.808491180630000        57.156590909090902        0.0000000000000000                1
   38.952632496008299        57.156590909090902        0.0000000000000000                1
   39.090620565502398        57.156590909090902        0.0000000000000000                1
   39.219541533293800        57.156590909090902        0.0000000000000000                1
   39.336673011037597        57.156590909090902        0.0000000000000000                1
   39.439541565782697        57.156590909090902        0.0000000000000000                1
   39.525974950769800        57.156590909090902        0.0000000000000000                1
   39.594147976164201        57.156590909090902        0.0000000000000000                1
   39.642621051083502        57.156590909090902        0.0000000000000000                1
   39.705856348642399        57.156590909090902        0.0000000000000000                1
   39.769091646201403        57.156590909090902        0.0000000000000000                1
   39.832326943760300        57.156590909090902        0.0000000000000000                1
   39.895562241319197        57.156590909090902        0.0000000000000000                1
   39.958797538878102        57.156590909090902        0.0000000000000000                1
   40.022032836436999        57.156590909090902        0.0000000000000000                1
   40.085268133996003        57.156590909090902        0.0000000000000000                1
   40.148503431554900        57.156590909090902        0.0000000000000000                1
   34.277420205786903        57.166004886583799        0.0000000000000000                1
   34.367420205786900        57.166004886583799        0.0000000000000000                1
   34.514670974843099        57.166002796917702        0.0000000000000000                1
   34.658812290221398        57.165996543410003        0.0000000000000000                1
   34.796800359715398        57.165986173285397        0.0000000000000000                1
   34.925721327506800        57.165971767774501        0.0000000000000000                1
   35.042852805250703        57.165953445946997        0.0000000000000000                1
   35.145721359995797        57.165931370160202        0.0000000000000000                1
   35.232154744982900        57.165905753165298        0.0000000000000000                1
   35.300327770377301        57.165876866856600        0.0000000000000000                1
   35.348800845296601        57.165845052529598        0.0000000000000000                1
   35.412036142855499        57.165788507648699        0.0000000000000000                1
   35.475271440414403        57.165728150926803        0.0000000000000000                1
   35.538506737973300        57.165663412381299        0.0000000000000000                1
   35.601742035532297        57.165593582449297        0.0000000000000000                1
   35.664977333091201        57.165517762113197        0.0000000000000000                1
   35.728212630650098        57.165434788497699        0.0000000000000000                1
   35.791447928209003        57.165343119835903        0.0000000000000000                1
   35.854683225767900        57.165240649846702        0.0000000000000000                1
   35.917918523326897        57.165124392115302        0.0000000000000000                1
   35.981153820885801        57.164989907052401        0.0000000000000000                1
   36.044389118444698        57.164830169271298        0.0000000000000000                1
   36.107624416003603        57.164633056537397        0.0000000000000000                1
   36.170859713562500        57.164374779726998        0.0000000000000000                1
   36.234095011121397        57.163997449251603        0.0000000000000000                1
   36.297330308680401        57.163277439680499        0.0000000000000000                1
   36.381996975347001        57.163277439680499        0.0000000000000000                1
   36.466663642013700        57.163277439680499        0.0000000000000000                1
   36.551330308680399        57.163277439680499        0.0000000000000000                1
   36.614565606239303        57.163997449251603        0.0000000000000000                1
   36.677800903798200        57.164374779726998        0.0000000000000000                1
   36.741036201357097        57.164633056537397        0.0000000000000000                1
   36.804271498916002        57.164830169271298        0.0000000000000000                1
   36.867506796474899        57.164989907052401        0.0000000000000000                1
   36.930742094033903        57.165124392115302        0.0000000000000000                1
   36.993977391592800        57.165240649846702        0.0000000000000000                1
   37.057212689151697        57.165343119835903        0.0000000000000000                1
   37.120447986710602        57.165434788497699        0.0000000000000000                1
   37.183683284269499        57.165517762113197        0.0000000000000000                1
   37.246918581828503        57.165593582449297        0.0000000000000000                1
   37.310153879387400        57.165663412381299        0.0000000000000000                1
   37.373389176946297        57.165728150926803        0.0000000000000000                1
   37.436624474505201        57.165788507648699        0.0000000000000000                1
   37.499859772064099        57.165845052529598        0.0000000000000000                1
   37.548332846983499        57.165876866856600        0.0000000000000000                1
   37.616505872377800        57.165905753165298        0.0000000000000000                1
   37.702939257364903        57.165931370160202        0.0000000000000000                1
   37.805807812110103        57.165953445946997        0.0000000000000000                1
   37.922939289853900        57.165971767774501        0.0000000000000000                1
   38.051860257645302        57.165986173285397        0.0000000000000000                1
   38.189848327139401        57.165996543410003        0.0000000000000000                1
   38.333989642517700        57.166002796917702        0.0000000000000000                1
   38.481240411573800        57.166004886583799        0.0000000000000000                1
   38.571240411573797        57.166004886583799        0.0000000000000000                1
   38.661240411573800        57.166004886583799        0.0000000000000000                1
   38.808491180630000        57.166002796917702        0.0000000000000000                1
   38.952632496008299        57.165996543410003        0.0000000000000000                1
   39.090620565502398        57.165986173285397        0.0000000000000000                1
   39.219541533293800        57.165971767774501        0.0000000000000000                1
   39.336673011037597        57.165953445946997        0.0000000000000000                1
   39.439541565782697        57.165931370160202        0.0000000000000000                1
   39.525974950769800        57.165905753165298        0.0000000000000000                1
   39.594147976164201        57.165876866856600        0.0000000000000000                1
   39.642621051083502        57.165845052529598        0.0000000000000000                1
   39.705856348642399        57.165788507648699        0.0000000000000000                1
   39.769091646201403        57.165728150926803        0.0000000000000000                1
   39.832326943760300        57.165663412381299        0.0000000000000000                1
   39.895562241319197        57.165593582449297        0.0000000000000000                1
   39.958797538878102        57.165517762113197        0.0000000000000000                1
   40.022032836436999        57.165434788497699        0.0000000000000000                1
   40.085268133996003        57.165343119835903        0.0000000000000000                1
   40.148503431554900        57.165240649846702        0.0000000000000000                1
   34.277420205786903        57.179451130647401        0.0000000000000000                1
   34.367420205786900        57.179451130647401        0.0000000000000000                1
   34.514670974843099        57.179443072188000        0.0000000000000000                1
   34.658812290221398        57.179418964463501        0.0000000000000000                1
   34.796800359715398        57.179379013038897        0.0000000000000000                1
   34.925721327506800        57.179323569237503        0.0000000000000000                1
   35.042852805250703        57.179253143328999        0.0000000000000000                1
   35.145721359995797        57.179168423165201        0.0000000000000000                1
   35.232154744982900        57.179070298288401        0.0000000000000000                1
   35.300327770377301        57.178959889310200        0.0000000000000000                1
   35.348800845296601        57.178838581889700        0.0000000000000000                1
   35.412036142855499        57.178623735394197        0.0000000000000000                1
   35.475271440414403        57.178395476058299        0.0000000000000000                1
   35.538506737973300        57.178151874112203        0.0000000000000000                1
   35.601742035532297        57.177890539740098        0.0000000000000000                1
   35.664977333091201        57.177608462164301        0.0000000000000000                1
   35.728212630650098        57.177301771015998        0.0000000000000000                1
   35.791447928209003        57.176965369796903        0.0000000000000000                1
   35.854683225767900        57.176592348695799        0.0000000000000000                1
   35.917918523326897        57.176172994291903        0.0000000000000000                1
   35.981153820885801        57.175693008215497        0.0000000000000000                1
   36.044389118444698        57.175130024326798        0.0000000000000000                1
   36.107624416003603        57.174445987448600        0.0000000000000000                1
   36.170859713562500        57.173567539214901        0.0000000000000000                1
   36.234095011121397        57.172320555577997        0.0000000000000000                1
   36.297330308680401        57.170060979054099        0.0000000000000000                1
   36.381996975347001        57.170060979054099        0.0000000000000000                1
   36.466663642013700        57.170060979054099        0.0000000000000000                1
   36.551330308680399        57.170060979054099        0.0000000000000000                1
   36.614565606239303        57.172320555577997        0.0000000000000000                1
   36.677800903798200        57.173567539214901        0.0000000000000000                1
   36.741036201357097        57.174445987448600        0.0000000000000000                1
   36.804271498916002        57.175130024326798        0.0000000000000000                1
   36.867506796474899        57.175693008215497        0.0000000000000000                1
   36.930742094033903        57.176172994291903        0.0000000000000000                1
   36.993977391592800        57.176592348695799        0.0000000000000000                1
   37.057212689151697        57.176965369796903        0.0000000000000000                1
   37.120447986710602        57.177301771015998        0.0000000000000000                1
   37.183683284269499        57.177608462164301        0.0000000000000000                1
   37.246918581828503        57.177890539740098        0.0000000000000000                1
   37.310153879387400        57.178151874112203        0.0000000000000000                1
   37.373389176946297        57.178395476058299        0.0000000000000000                1
   37.436624474505201        57.178623735394197        0.0000000000000000                1
   37.499859772064099        57.178838581889700        0.0000000000000000                1
   37.548332846983499        57.178959889310200        0.0000000000000000                1
   37.616505872377800        57.179070298288401        0.0000000000000000                1
   37.702939257364903        57.179168423165201        0.0000000000000000                1
   37.805807812110103        57.179253143328999        0.0000000000000000                1
   37.922939289853900        57.179323569237503        0.0000000000000000                1
   38.051860257645302        57.179379013038897        0.0000000000000000                1
   38.189848327139401        57.179418964463501        0.0000000000000000                1
   38.333989642517700        57.179443072188000        0.0000000000000000                1
   38.481240411573800        57.179451130647401        0.0000000000000000                1
   38.571240411573797        57.179451130647401        0.0000000000000000                1
   38.661240411573800        57.179451130647401        0.0000000000000000                1
   38.808491180630000        57.179443072188000        0.0000000000000000                1
   38.952632496008299        57.179418964463501        0.0000000000000000                1
   39.090620565502398        57.179379013038897        0.0000000000000000                1
   39.219541533293800        57.179323569237503        0.0000000000000000                1
   39.336673011037597        57.179253143328999        0.0000000000000000                1
   39.439541565782697        57.179168423165201        0.0000000000000000                1
   39.525974950769800        57.179070298288401        0.0000000000000000                1
   39.594147976164201        57.178959889310200        0.0000000000000000                1
   39.642621051083502        57.178838581889700        0.0000000000000000                1
   39.705856348642399        57.178623735394197        0.0000000000000000                1
   39.769091646201403        57.178395476058299        0.0000000000000000                1
   39.832326943760300        57.178151874112203        0.0000000000000000                1
   39.895562241319197        57.177890539740098        0.0000000000000000                1
   39.958797538878102        57.177608462164301        0.0000000000000000                1
   40.022032836436999        57.177301771015998        0.0000000000000000                1
   40.085268133996003        57.176965369796903        0.0000000000000000                1
   40.148503431554900        57.176592348695799        0.0000000000000000                1
   34.277420205786903        57.198656772423497        0.0000000000000000                1
   34.367420205786900        57.198656772423497        0.0000000000000000                1
   34.514670974843099        57.198635927294902        0.0000000000000000                1
   34.658812290221398        57.198573588258903        0.0000000000000000                1
   34.796800359715398        57.198470350222301        0.0000000000000000                1
   34.925721327506800        57.198327224267302        0.0000000000000000                1
   35.042852805250703        57.198145667136700        0.0000000000000000                1
   35.145721359995797        57.197927622626203        0.0000000000000000                1
   35.232154744982900        57.197675574653402        0.0000000000000000                1
   35.300327770377301        57.197392611151201        0.0000000000000000                1
   35.348800845296601        57.197082496775302        0.0000000000000000                1
   35.412036142855499        57.196535266348803        0.0000000000000000                1
   35.475271440414403        57.195956697362298        0.0000000000000000                1
   35.538506737973300        57.195342463237701        0.0000000000000000                1
   35.601742035532297        57.194687234743000        0.0000000000000000                1
   35.664977333091201        57.193984336994902        0.0000000000000000                1
   35.728212630650098        57.193225243918803        0.0000000000000000                1
   35.791447928209003        57.192398806912600        0.0000000000000000                1
   35.854683225767900        57.191490028337299        0.0000000000000000                1
   35.917918523326897        57.190478010158003        0.0000000000000000                1
   35.981153820885801        57.189332298882498        0.0000000000000000                1
   36.044389118444698        57.188005818007497        0.0000000000000000                1
   36.107624416003603        57.186419606896600        0.0000000000000000                1
   36.170859713562500        57.184424197933097        0.0000000000000000                1
   36.234095011121397        57.181673653977299        0.0000000000000000                1
   36.297330308680401        57.176942934623902        0.0000000000000000                1
   36.381996975347001        57.176942934623902        0.0000000000000000                1
   36.466663642013700        57.176942934623902        0.0000000000000000                1
   36.551330308680399        57.176942934623902        0.0000000000000000                1
   36.614565606239303        57.181673653977299        0.0000000000000000                1
   36.677800903798200        57.184424197933097        0.0000000000000000                1
   36.741036201357097        57.186419606896600        0.0000000000000000                1
   36.804271498916002        57.188005818007497        0.0000000000000000                1
   36.867506796474899        57.189332298882498        0.0000000000000000                1
   36.930742094033903        57.190478010158003        0.0000000000000000                1
   36.993977391592800        57.191490028337299        0.0000000000000000                1
   37.057212689151697        57.192398806912600        0.0000000000000000                1
   37.120447986710602        57.193225243918803        0.0000000000000000                1
   37.183683284269499        57.193984336994902        0.0000000000000000                1
   37.246918581828503        57.194687234743000        0.0000000000000000                1