 variables = x, y, z, active
 zone f = fepoint, et = brick, n =         4088 , e =         3024
   45.708088398284502        57.243262172680900        0.0000000000000000                1
   45.771323695843400        57.246204874955502        0.0000000000000000                1
   45.834558993402403        57.248968578144002        0.0000000000000000                1
   45.897794290961301        57.251578361156803        0.0000000000000000                1
   45.961029588520198        57.254054119231000        0.0000000000000000                1
   46.024264886079102        57.256411930539699        0.0000000000000000                1
   46.087500183637999        57.258664995235797        0.0000000000000000                1
   46.135973258557399        57.259951688292297        0.0000000000000000                1
   46.204146283951701        57.261131957189697        0.0000000000000000                1
   46.290579668938797        57.262188270741703        0.0000000000000000                1
   46.393448223683997        57.263105871256300        0.0000000000000000                1
   46.510579701427801        57.263872602814899        0.0000000000000000                1
   46.639500669219203        57.264478752134700        0.0000000000000000                1
   46.777488738713203        57.264916911556597        0.0000000000000000                1
   46.921630054091501        57.265181869463397        0.0000000000000000                1
   47.068880823147701        57.265270530871703        0.0000000000000000                1
   47.158880823147697        57.265270530871703        0.0000000000000000                1
   47.248880823147701        57.265270530871703        0.0000000000000000                1
   47.396131592203901        57.265181869463397        0.0000000000000000                1
   47.540272907582199        57.264916911556597        0.0000000000000000                1
   47.678260977076299        57.264478752134700        0.0000000000000000                1
   47.807181944867700        57.263872602814899        0.0000000000000000                1
   47.924313422611498        57.263105871256300        0.0000000000000000                1
   48.027181977356598        57.262188270741703        0.0000000000000000                1
   48.113615362343701        57.261131957189697        0.0000000000000000                1
   48.181788387738102        57.259951688292297        0.0000000000000000                1
   48.230261462657403        57.258664995235797        0.0000000000000000                1
   48.293496760216300        57.256411930539699        0.0000000000000000                1
   48.356732057775297        57.254054119231000        0.0000000000000000                1
   48.419967355334201        57.251578361156803        0.0000000000000000                1
   48.483202652893098        57.248968578144002        0.0000000000000000                1
   48.546437950452002        57.246204874955502        0.0000000000000000                1
   48.609673248010900        57.243262172680900        0.0000000000000000                1
   48.672908545569797        57.240108152275504        0.0000000000000000                1
   48.736143843128801        57.236700034346001        0.0000000000000000                1
   48.799379140687698        57.232979285115299        0.0000000000000000                1
   48.862614438246602        57.228862366543403        0.0000000000000000                1
   48.925849735805500        57.224223253190900        0.0000000000000000                1
   48.989085033364397        57.218856697215998        0.0000000000000000                1
   49.052320330923401        57.212388394813701        0.0000000000000000                1
   49.115555628482298        57.203995450462500        0.0000000000000000                1
   49.178790926041202        57.191007826390603        0.0000000000000000                1
   49.263457592707901        57.191007826390603        0.0000000000000000                1
   49.348124259374501        57.191007826390603        0.0000000000000000                1
   49.432790926041200        57.191007826390603        0.0000000000000000                1
   49.496026223600097        57.203995450462500        0.0000000000000000                1
   49.559261521159002        57.212388394813701        0.0000000000000000                1
   49.622496818717899        57.218856697215998        0.0000000000000000                1
   49.685732116276903        57.224223253190900        0.0000000000000000                1
   49.748967413835800        57.228862366543403        0.0000000000000000                1
   49.812202711394697        57.232979285115299        0.0000000000000000                1
   49.875438008953601        57.236700034346001        0.0000000000000000                1
   49.938673306512499        57.240108152275504        0.0000000000000000                1
   50.001908604071502        57.243262172680900        0.0000000000000000                1
   50.065143901630400        57.246204874955502        0.0000000000000000                1
   50.128379199189297        57.248968578144002        0.0000000000000000                1
   50.191614496748201        57.251578361156803        0.0000000000000000                1
   50.254849794307098        57.254054119231000        0.0000000000000000                1
   50.318085091866003        57.256411930539699        0.0000000000000000                1
   50.381320389424999        57.258664995235797        0.0000000000000000                1
   50.429793464344300        57.259951688292297        0.0000000000000000                1
   50.497966489738701        57.261131957189697        0.0000000000000000                1
   50.584399874725797        57.262188270741703        0.0000000000000000                1
   50.687268429470898        57.263105871256300        0.0000000000000000                1
   50.804399907214702        57.263872602814899        0.0000000000000000                1
   50.933320875006103        57.264478752134700        0.0000000000000000                1
   51.071308944500203        57.264916911556597        0.0000000000000000                1
   51.215450259878502        57.265181869463397        0.0000000000000000                1
   51.362701028934701        57.265270530871703        0.0000000000000000                1
   51.452701028934698        57.265270530871703        0.0000000000000000                1
   51.542701028934701        57.265270530871703        0.0000000000000000                1
   45.708088398284502        57.281732888297000        0.0000000000000000                1
   45.771323695843400        57.286892627247298        0.0000000000000000                1
   45.834558993402403        57.291774351843401        0.0000000000000000                1
   45.897794290961301        57.296415325285203        0.0000000000000000                1
   45.961029588520198        57.300845311376897        0.0000000000000000                1
   46.024264886079102        57.305088514712402        0.0000000000000000                1
   46.087500183637999        57.309164922599599        0.0000000000000000                1
   46.135973258557399        57.311502275590698        0.0000000000000000                1
   46.204146283951701        57.313652224703702        0.0000000000000000                1
   46.290579668938797        57.315581142584200        0.0000000000000000                1
   46.393448223683997        57.317260381795101        0.0000000000000000                1
   46.510579701427801        57.318666091772201        0.0000000000000000                1
   46.639500669219203        57.319779037788798        0.0000000000000000                1
   46.777488738713203        57.320584439007398        0.0000000000000000                1
   46.921630054091501        57.321071835790498        0.0000000000000000                1
   47.068880823147701        57.321234992062600        0.0000000000000000                1
   47.158880823147697        57.321234992062600        0.0000000000000000                1
   47.248880823147701        57.321234992062600        0.0000000000000000                1
   47.396131592203901        57.321071835790498        0.0000000000000000                1
   47.540272907582199        57.320584439007398        0.0000000000000000                1
   47.678260977076299        57.319779037788798        0.0000000000000000                1
   47.807181944867700        57.318666091772201        0.0000000000000000                1
   47.924313422611498        57.317260381795101        0.0000000000000000                1
   48.027181977356598        57.315581142584200        0.0000000000000000                1
   48.113615362343701        57.313652224703702        0.0000000000000000                1
   48.181788387738102        57.311502275590698        0.0000000000000000                1
   48.230261462657403        57.309164922599599        0.0000000000000000                1
   48.293496760216300        57.305088514712402        0.0000000000000000                1
   48.356732057775297        57.300845311376897        0.0000000000000000                1
   48.419967355334201        57.296415325285203        0.0000000000000000                1
   48.483202652893098        57.291774351843401        0.0000000000000000                1
   48.546437950452002        57.286892627247298        0.0000000000000000                1
   48.609673248010900        57.281732888297000        0.0000000000000000                1
   48.672908545569797        57.276247473561803        0.0000000000000000                1
   48.736143843128801        57.270373819804099        0.0000000000000000                1
   48.799379140687698        57.264027123297602        0.0000000000000000                1
   48.862614438246602        57.257087645838403        0.0000000000000000                1
   48.925849735805500        57.249377000666399        0.0000000000000000                1
   48.989085033364397        57.240609017071499        0.0000000000000000                1
   49.052320330923401        57.230271669624003        0.0000000000000000                1
   49.115555628482298        57.217268346273997        0.0000000000000000                1
   49.178790926041202        57.198193680695397        0.0000000000000000                1
   49.263457592707901        57.198193680695397        0.0000000000000000                1
   49.348124259374501        57.198193680695397        0.0000000000000000                1
   49.432790926041200        57.198193680695397        0.0000000000000000                1
   49.496026223600097        57.217268346273997        0.0000000000000000                1
   49.559261521159002        57.230271669624003        0.0000000000000000                1
   49.622496818717899        57.240609017071499        0.0000000000000000                1
   49.685732116276903        57.249377000666399        0.0000000000000000                1
   49.748967413835800        57.257087645838403        0.0000000000000000                1
   49.812202711394697        57.264027123297602        0.0000000000000000                1
   49.875438008953601        57.270373819804099        0.0000000000000000                1
   49.938673306512499        57.276247473561803        0.0000000000000000                1
   50.001908604071502        57.281732888297000        0.0000000000000000                1
   50.065143901630400        57.286892627247298        0.0000000000000000                1
   50.128379199189297        57.291774351843401        0.0000000000000000                1
   50.191614496748201        57.296415325285203        0.0000000000000000                1
   50.254849794307098        57.300845311376897        0.0000000000000000                1
   50.318085091866003        57.305088514712402        0.0000000000000000                1
   50.381320389424999        57.309164922599599        0.0000000000000000                1
   50.429793464344300        57.311502275590698        0.0000000000000000                1
   50.497966489738701        57.313652224703702        0.0000000000000000                1
   50.584399874725797        57.315581142584200        0.0000000000000000                1
   50.687268429470898        57.317260381795101        0.0000000000000000                1
   50.804399907214702        57.318666091772201        0.0000000000000000                1
   50.933320875006103        57.319779037788798        0.0000000000000000                1
   51.071308944500203        57.320584439007398        0.0000000000000000                1
   51.215450259878502        57.321071835790498        0.0000000000000000                1
   51.362701028934701        57.321234992062600        0.0000000000000000                1
   51.452701028934698        57.321234992062600        0.0000000000000000                1
   51.542701028934701        57.321234992062600        0.0000000000000000                1
   45.708088398284502        57.333354047822603        0.0000000000000000                1
   45.771323695843400        57.342000895243103        0.0000000000000000                1
   45.834558993402403        57.350243736438898        0.0000000000000000                1
   45.897794290961301        57.358134201842901        0.0000000000000000                1
   45.961029588520198        57.365713819275904        0.0000000000000000                1
   46.024264886079102        57.373016576564403        0.0000000000000000                1
   46.087500183637999        57.380070705856603        0.0000000000000000                1
   46.135973258557399        57.384132100982903        0.0000000000000000                1
   46.204146283951701        57.387878419586599        0.0000000000000000                1
   46.290579668938797        57.391248100502303        0.0000000000000000                1
   46.393448223683997        57.394188100543701        0.0000000000000000                1
   46.510579701427801        57.396653812373799        0.0000000000000000                1
   46.639500669219203        57.398608951323702        0.0000000000000000                1
   46.777488738713203        57.400025438636902        0.0000000000000000                1
   46.921630054091501        57.400883298284597        0.0000000000000000                1
   47.068880823147701        57.401170577698601        0.0000000000000000                1
   47.158880823147697        57.401170577698601        0.0000000000000000                1
   47.248880823147701        57.401170577698601        0.0000000000000000                1
   47.396131592203901        57.400883298284597        0.0000000000000000                1
   47.540272907582199        57.400025438636902        0.0000000000000000                1
   47.678260977076299        57.398608951323702        0.0000000000000000                1
   47.807181944867700        57.396653812373799        0.0000000000000000                1
   47.924313422611498        57.394188100543701        0.0000000000000000                1
   48.027181977356598        57.391248100502303        0.0000000000000000                1
   48.113615362343701        57.387878419586599        0.0000000000000000                1
   48.181788387738102        57.384132100982903        0.0000000000000000                1
   48.230261462657403        57.380070705856603        0.0000000000000000                1
   48.293496760216300        57.373016576564403        0.0000000000000000                1
   48.356732057775297        57.365713819275904        0.0000000000000000                1
   48.419967355334201        57.358134201842901        0.0000000000000000                1
   48.483202652893098        57.350243736438898        0.0000000000000000                1
   48.546437950452002        57.342000895243103        0.0000000000000000                1
   48.609673248010900        57.333354047822603        0.0000000000000000                1
   48.672908545569797        57.324237660001302        0.0000000000000000                1
   48.736143843128801        57.314566435793900        0.0000000000000000                1
   48.799379140687698        57.304225857101699        0.0000000000000000                1
   48.862614438246602        57.293055986471103        0.0000000000000000                1
   48.925849735805500        57.280821565764299        0.0000000000000000                1
   48.989085033364397        57.267150934304603        0.0000000000000000                1
   49.052320330923401        57.251391836167599        0.0000000000000000                1
   49.115555628482298        57.232183775165602        0.0000000000000000                1
   49.178790926041202        57.205483788017297        0.0000000000000000                1
   49.263457592707901        57.205483788017297        0.0000000000000000                1
   49.348124259374501        57.205483788017297        0.0000000000000000                1
   49.432790926041200        57.205483788017297        0.0000000000000000                1
   49.496026223600097        57.232183775165602        0.0000000000000000                1
   49.559261521159002        57.251391836167599        0.0000000000000000                1
   49.622496818717899        57.267150934304603        0.0000000000000000                1
   49.685732116276903        57.280821565764299        0.0000000000000000                1
   49.748967413835800        57.293055986471103        0.0000000000000000                1
   49.812202711394697        57.304225857101699        0.0000000000000000                1
   49.875438008953601        57.314566435793900        0.0000000000000000                1
   49.938673306512499        57.324237660001302        0.0000000000000000                1
   50.001908604071502        57.333354047822603        0.0000000000000000                1
   50.065143901630400        57.342000895243103        0.0000000000000000                1
   50.128379199189297        57.350243736438898        0.0000000000000000                1
   50.191614496748201        57.358134201842901        0.0000000000000000                1
   50.254849794307098        57.365713819275904        0.0000000000000000                1
   50.318085091866003        57.373016576564403        0.0000000000000000                1
   50.381320389424999        57.380070705856603        0.0000000000000000                1
   50.429793464344300        57.384132100982903        0.0000000000000000                1
   50.497966489738701        57.387878419586599        0.0000000000000000                1
   50.584399874725797        57.391248100502303        0.0000000000000000                1
   50.687268429470898        57.394188100543701        0.0000000000000000                1
   50.804399907214702        57.396653812373799        0.0000000000000000                1
   50.933320875006103        57.398608951323702        0.0000000000000000                1
   51.071308944500203        57.400025438636902        0.0000000000000000                1
   51.215450259878502        57.400883298284597        0.0000000000000000                1
   51.362701028934701        57.401170577698601        0.0000000000000000                1
   51.452701028934698        57.401170577698601        0.0000000000000000                1
   51.542701028934701        57.401170577698601        0.0000000000000000                1
   45.708088398284502        57.402620867222801        0.0000000000000000                1
   45.771323695843400        57.416640584840898        0.0000000000000000                1
   45.834558993402403        57.430108405139499        0.0000000000000000                1
   45.897794290961301        57.443091330354903        0.0000000000000000                1
   45.961029588520198        57.455643635637898        0.0000000000000000                1
   46.024264886079102        57.467810031474599        0.0000000000000000                1
   46.087500183637999        57.479627880722497        0.0000000000000000                1
   46.135973258557399        57.486460547911697        0.0000000000000000                1
   46.204146283951701        57.492781312652198        0.0000000000000000                1
   46.290579668938797        57.498481300796598        0.0000000000000000                1
   46.393448223683997        57.503465681542600        0.0000000000000000                1
   46.510579701427801        57.507653945425503        0.0000000000000000                1
   46.639500669219203        57.510980075530497        0.0000000000000000                1
   46.777488738713203        57.513392651285301        0.0000000000000000                1
   46.921630054091501        57.514854910079400        0.0000000000000000                1
   47.068880823147701        57.515344782452502        0.0000000000000000                1
   47.158880823147697        57.515344782452502        0.0000000000000000                1
   47.248880823147701        57.515344782452502        0.0000000000000000                1
   47.396131592203901        57.514854910079400        0.0000000000000000                1
   47.540272907582199        57.513392651285301        0.0000000000000000                1
   47.678260977076299        57.510980075530497        0.0000000000000000                1
   47.807181944867700        57.507653945425503        0.0000000000000000                1
   47.924313422611498        57.503465681542600        0.0000000000000000                1
   48.027181977356598        57.498481300796598        0.0000000000000000                1
   48.113615362343701        57.492781312652198        0.0000000000000000                1
   48.181788387738102        57.486460547911697        0.0000000000000000                1
   48.230261462657403        57.479627880722497        0.0000000000000000                1
   48.293496760216300        57.467810031474599        0.0000000000000000                1
   48.356732057775297        57.455643635637898        0.0000000000000000                1
   48.419967355334201        57.443091330354903        0.0000000000000000                1
   48.483202652893098        57.430108405139499        0.0000000000000000                1
   48.546437950452002        57.416640584840898        0.0000000000000000                1
   48.609673248010900        57.402620867222801        0.0000000000000000                1
   48.672908545569797        57.387964866615398        0.0000000000000000                1
   48.736143843128801        57.372563696317101        0.0000000000000000                1
   48.799379140687698        57.356272579001299        0.0000000000000000                1
   48.862614438246602        57.338891548073398        0.0000000000000000                1
   48.925849735805500        57.320130248303798        0.0000000000000000                1
   48.989085033364397        57.299537060248298        0.0000000000000000                1
   49.052320330923401        57.276334775285697        0.0000000000000000                1
   49.115555628482298        57.248945002118496        0.0000000000000000                1
   49.178790926041202        57.212879660868403        0.0000000000000000                1
   49.263457592707901        57.212879660868403        0.0000000000000000                1
   49.348124259374501        57.212879660868403        0.0000000000000000                1
   49.432790926041200        57.212879660868403        0.0000000000000000                1
   49.496026223600097        57.248945002118496        0.0000000000000000                1
   49.559261521159002        57.276334775285697        0.0000000000000000                1
   49.622496818717899        57.299537060248298        0.0000000000000000                1
   49.685732116276903        57.320130248303798        0.0000000000000000                1
   49.748967413835800        57.338891548073398        0.0000000000000000                1
   49.812202711394697        57.356272579001299        0.0000000000000000                1
   49.875438008953601        57.372563696317101        0.0000000000000000                1
   49.938673306512499        57.387964866615398        0.0000000000000000                1
   50.001908604071502        57.402620867222801        0.0000000000000000                1
   50.065143901630400        57.416640584840898        0.0000000000000000                1
   50.128379199189297        57.430108405139499        0.0000000000000000                1
   50.191614496748201        57.443091330354903        0.0000000000000000                1
   50.254849794307098        57.455643635637898        0.0000000000000000                1
   50.318085091866003        57.467810031474599        0.0000000000000000                1
   50.381320389424999        57.479627880722497        0.0000000000000000                1
   50.429793464344300        57.486460547911697        0.0000000000000000                1
   50.497966489738701        57.492781312652198        0.0000000000000000                1
   50.584399874725797        57.498481300796598        0.0000000000000000                1
   50.687268429470898        57.503465681542600        0.0000000000000000                1
   50.804399907214702        57.507653945425503        0.0000000000000000                1
   50.933320875006103        57.510980075530497        0.0000000000000000                1
   51.071308944500203        57.513392651285301        0.0000000000000000                1
   51.215450259878502        57.514854910079400        0.0000000000000000                1
   51.362701028934701        57.515344782452502        0.0000000000000000                1
   51.452701028934698        57.515344782452502        0.0000000000000000                1
   51.542701028934701        57.515344782452502        0.0000000000000000                1
   45.708088398284502        57.495565162041203        0.0000000000000000                1
   45.771323695843400        57.517734004501399        0.0000000000000000                1
   45.834558993402403        57.539197381375303        0.0000000000000000                1
   45.897794290961301        57.560036324942899        0.0000000000000000                1
   45.961029588520198        57.580316949898503        0.0000000000000000                1
   46.024264886079102        57.600094080935698        0.0000000000000000                1
   46.087500183637999        57.619413813717003        0.0000000000000000                1
   46.135973258557399        57.630631499642703        0.0000000000000000                1
   46.204146283951701        57.641039174865099        0.0000000000000000                1
   46.290579668938797        57.650449340238701        0.0000000000000000                1
   46.393448223683997        57.658696980523601        0.0000000000000000                1
   46.510579701427801        57.665640734146301        0.0000000000000000                1
   46.639500669219203        57.671163805148900        0.0000000000000000                1
   46.777488738713203        57.675174665152397        0.0000000000000000                1
   46.921630054091501        57.677607576039499        0.0000000000000000                1
   47.068880823147701        57.678422952550100        0.0000000000000000                1
   47.158880823147697        57.678422952550100        0.0000000000000000                1
   47.248880823147701        57.678422952550100        0.0000000000000000                1
   47.396131592203901        57.677607576039499        0.0000000000000000                1
   47.540272907582199        57.675174665152397        0.0000000000000000                1
   47.678260977076299        57.671163805148900        0.0000000000000000                1
   47.807181944867700        57.665640734146301        0.0000000000000000                1
   47.924313422611498        57.658696980523601        0.0000000000000000                1
   48.027181977356598        57.650449340238701        0.0000000000000000                1
   48.113615362343701        57.641039174865099        0.0000000000000000                1
   48.181788387738102        57.630631499642703        0.0000000000000000                1
   48.230261462657403        57.619413813717003        0.0000000000000000                1
   48.293496760216300        57.600094080935698        0.0000000000000000                1
   48.356732057775297        57.580316949898503        0.0000000000000000                1
   48.419967355334201        57.560036324942899        0.0000000000000000                1
   48.483202652893098        57.539197381375303        0.0000000000000000                1
   48.546437950452002        57.517734004501399        0.0000000000000000                1
   48.609673248010900        57.495565162041203        0.0000000000000000                1
   48.672908545569797        57.472589602715203        0.0000000000000000                1
   48.736143843128801        57.448677819748703        0.0000000000000000                1
   48.799379140687698        57.423659309978703        0.0000000000000000                1
   48.862614438246602        57.397301212529698        0.0000000000000000                1
   48.925849735805500        57.369269821968700        0.0000000000000000                1
   48.989085033364397        57.339054218878097        0.0000000000000000                1
   49.052320330923401        57.305792412874297        0.0000000000000000                1
   49.115555628482298        57.267780446342698        0.0000000000000000                1
   49.178790926041202        57.220382833704498        0.0000000000000000                1
   49.263457592707901        57.220382833704498        0.0000000000000000                1
   49.348124259374501        57.220382833704498        0.0000000000000000                1