 variables = x, y, z, active
 zone f = fepoint, et = brick, n =         4032 , e =         2982
   51.689951797990801        61.107665128758697        0.0000000000000000                1
   51.834093113369100        61.078142679360099        0.0000000000000000                1
   51.972081182863199        61.029644906480399        0.0000000000000000                1
   52.101002150654601        60.963214882249197        0.0000000000000000                1
   52.218133628398398        60.880280491857299        0.0000000000000000                1
   52.321002183143598        60.782622871202797        0.0000000000000000                1
   52.407435568130701        60.672337030754903        0.0000000000000000                1
   52.475608593525003        60.551785542653001        0.0000000000000000                1
   52.524081668444403        60.423546336107201        0.0000000000000000                1
   52.587316966003300        60.206868725566800        0.0000000000000000                1
   52.650552263562197        59.990648513282501        0.0000000000000000                1
   52.713787561121102        59.774931794916498        0.0000000000000000                1
   52.777022858679999        59.559773395162402        0.0000000000000000                1
   52.840258156239003        59.345239428714699        0.0000000000000000                1
   52.903493453797900        59.131410927853302        0.0000000000000000                1
   52.966728751356797        58.918389143857603        0.0000000000000000                1
   53.029964048915701        58.706303583502603        0.0000000000000000                1
   53.093199346474599        58.495324749950903        0.0000000000000000                1
   53.156434644033503        58.285685504078302        0.0000000000000000                1
   53.219669941592500        58.077719551317699        0.0000000000000000                1
   53.282905239151397        57.871937811086703        0.0000000000000000                1
   53.346140536710301        57.669202273768903        0.0000000000000000                1
   53.409375834269198        57.471216896978802        0.0000000000000000                1
   53.472611131828103        57.282617166295402        0.0000000000000000                1
   53.557277798494802        57.282617166295402        0.0000000000000000                1
   53.641944465161501        57.282617166295402        0.0000000000000000                1
   53.726611131828101        57.282617166295402        0.0000000000000000                1
   53.789846429386998        57.471216896978802        0.0000000000000000                1
   53.853081726946002        57.669202273768903        0.0000000000000000                1
   53.916317024504899        57.871937811086703        0.0000000000000000                1
   53.979552322063803        58.077719551317699        0.0000000000000000                1
   54.042787619622700        58.285685504078302        0.0000000000000000                1
   54.106022917181598        58.495324749950903        0.0000000000000000                1
   54.169258214740601        58.706303583502603        0.0000000000000000                1
   54.232493512299499        58.918389143857603        0.0000000000000000                1
   54.295728809858403        59.131410927853302        0.0000000000000000                1
   54.358964107417300        59.345239428714699        0.0000000000000000                1
   54.422199404976197        59.559773395162402        0.0000000000000000                1
   54.485434702535201        59.774931794916498        0.0000000000000000                1
   54.548670000094098        59.990648513282501        0.0000000000000000                1
   54.611905297653003        60.206868725566800        0.0000000000000000                1
   54.675140595211900        60.423546336107201        0.0000000000000000                1
   54.723613670131201        60.551785542653001        0.0000000000000000                1
   54.791786695525602        60.672337030754903        0.0000000000000000                1
   54.878220080512698        60.782622871202797        0.0000000000000000                1
   54.981088635257798        60.880280491857299        0.0000000000000000                1
   55.098220113001702        60.963214882249197        0.0000000000000000                1
   55.227141080793103        61.029644906480399        0.0000000000000000                1
   55.365129150287103        61.078142679360099        0.0000000000000000                1
   55.509270465665402        61.107665128758697        0.0000000000000000                1
   55.656521234721602        61.117577047449899        0.0000000000000000                1
   55.833690430531597        61.117577047449899        0.0000000000000000                1
   56.044900414419097        61.117577047449899        0.0000000000000000                1
   56.296691687105003        61.117577047449899        0.0000000000000000                1
   56.596861422616001        61.117577047449899        0.0000000000000000                1
   56.954704921938301        61.117577047449899        0.0000000000000000                1
   57.381303458893598        61.117577047449899        0.0000000000000000                1
   57.889867431907000        61.117577047449899        0.0000000000000000                1
   58.496145447985498        61.117577047449899        0.0000000000000000                1
   59.218912006933799        61.117577047449899        0.0000000000000000                1
   60.080548887836997        61.117577047449899        0.0000000000000000                1
   61.107738241496101        61.117577047449899        0.0000000000000000                1
   62.332288851684297        61.117577047449899        0.0000000000000000                1
   63.792121151902897        61.117577047449899        0.0000000000000000                1
   65.532441500470696        61.117577047449899        0.0000000000000000                1
   67.607142077506595        61.117577047449899        0.0000000000000000                1
   70.080469754158301        61.117577047449899        0.0000000000000000                1
   73.029015613643793        61.117577047449899        0.0000000000000000                1
   76.544086733237094        61.117577047449899        0.0000000000000000                1
   80.734533673735001        61.117577047449899        0.0000000000000000                1
   85.730121234751394        61.117577047449899        0.0000000000000000                1
   51.689951797990801        61.270417794718902        0.0000000000000000                1
   51.834093113369100        61.239924693227202        0.0000000000000000                1
   51.972081182863199        61.189828636098703        0.0000000000000000                1
   52.101002150654601        61.121201670970002        0.0000000000000000                1
   52.218133628398398        61.035511790838200        0.0000000000000000                1
   52.321002183143598        60.934590910644999        0.0000000000000000                1
   52.407435568130701        60.820594892967698        0.0000000000000000                1
   52.475608593525003        60.695956494384099        0.0000000000000000                1
   52.524081668444403        60.563332269101700        0.0000000000000000                1
   52.587316966003300        60.339152775027898        0.0000000000000000                1
   52.650552263562197        60.115321827542999        0.0000000000000000                1
   52.713787561121102        59.891876789504401        0.0000000000000000                1
   52.777022858679999        59.668862371398198        0.0000000000000000                1
   52.840258156239003        59.446332848375199        0.0000000000000000                1
   52.903493453797900        59.224355222671598        0.0000000000000000                1
   52.966728751356797        59.003013879957500        0.0000000000000000                1
   53.029964048915701        58.782417706934098        0.0000000000000000                1
   53.093199346474599        58.562711480928300        0.0000000000000000                1
   53.156434644033503        58.344095168534601        0.0000000000000000                1
   53.219669941592500        58.126859124982602        0.0000000000000000                1
   53.282905239151397        57.911454969716502        0.0000000000000000                1
   53.346140536710301        57.698659911357502        0.0000000000000000                1
   53.409375834269198        57.490052341203103        0.0000000000000000                1
   53.472611131828103        57.290120339131498        0.0000000000000000                1
   53.557277798494802        57.290120339131498        0.0000000000000000                1
   53.641944465161501        57.290120339131498        0.0000000000000000                1
   53.726611131828101        57.290120339131498        0.0000000000000000                1
   53.789846429386998        57.490052341203103        0.0000000000000000                1
   53.853081726946002        57.698659911357502        0.0000000000000000                1
   53.916317024504899        57.911454969716502        0.0000000000000000                1
   53.979552322063803        58.126859124982602        0.0000000000000000                1
   54.042787619622700        58.344095168534601        0.0000000000000000                1
   54.106022917181598        58.562711480928300        0.0000000000000000                1
   54.169258214740601        58.782417706934098        0.0000000000000000                1
   54.232493512299499        59.003013879957500        0.0000000000000000                1
   54.295728809858403        59.224355222671598        0.0000000000000000                1
   54.358964107417300        59.446332848375199        0.0000000000000000                1
   54.422199404976197        59.668862371398198        0.0000000000000000                1
   54.485434702535201        59.891876789504401        0.0000000000000000                1
   54.548670000094098        60.115321827542999        0.0000000000000000                1
   54.611905297653003        60.339152775027898        0.0000000000000000                1
   54.675140595211900        60.563332269101700        0.0000000000000000                1
   54.723613670131201        60.695956494384099        0.0000000000000000                1
   54.791786695525602        60.820594892967698        0.0000000000000000                1
   54.878220080512698        60.934590910644999        0.0000000000000000                1
   54.981088635257798        61.035511790838200        0.0000000000000000                1
   55.098220113001702        61.121201670970002        0.0000000000000000                1
   55.227141080793103        61.189828636098703        0.0000000000000000                1
   55.365129150287103        61.239924693227202        0.0000000000000000                1
   55.509270465665402        61.270417794718902        0.0000000000000000                1
   55.656521234721602        61.280655217547498        0.0000000000000000                1
   55.833690430531597        61.280655217547498        0.0000000000000000                1
   56.044900414419097        61.280655217547498        0.0000000000000000                1
   56.296691687105003        61.280655217547498        0.0000000000000000                1
   56.596861422616001        61.280655217547498        0.0000000000000000                1
   56.954704921938301        61.280655217547498        0.0000000000000000                1
   57.381303458893598        61.280655217547498        0.0000000000000000                1
   57.889867431907000        61.280655217547498        0.0000000000000000                1
   58.496145447985498        61.280655217547498        0.0000000000000000                1
   59.218912006933799        61.280655217547498        0.0000000000000000                1
   60.080548887836997        61.280655217547498        0.0000000000000000                1
   61.107738241496101        61.280655217547498        0.0000000000000000                1
   62.332288851684297        61.280655217547498        0.0000000000000000                1
   63.792121151902897        61.280655217547498        0.0000000000000000                1
   65.532441500470696        61.280655217547498        0.0000000000000000                1
   67.607142077506595        61.280655217547498        0.0000000000000000                1
   70.080469754158301        61.280655217547498        0.0000000000000000                1
   73.029015613643793        61.280655217547498        0.0000000000000000                1
   76.544086733237094        61.280655217547498        0.0000000000000000                1
   80.734533673735001        61.280655217547498        0.0000000000000000                1
   85.730121234751394        61.280655217547498        0.0000000000000000                1
   51.689951797990801        61.384389406513598        0.0000000000000000                1
   51.834093113369100        61.353291905875700        0.0000000000000000                1
   51.972081182863199        61.302199760305598        0.0000000000000000                1
   52.101002150654601        61.232201804021798        0.0000000000000000                1
   52.218133628398398        61.144789371837199        0.0000000000000000                1
   52.321002183143598        61.041824110939302        0.0000000000000000                1
   52.407435568130701        60.925497786033297        0.0000000000000000                1
   52.475608593525003        60.798284941312900        0.0000000000000000                1
   52.524081668444403        60.662889443967600        0.0000000000000000                1
   52.587316966003300        60.433946229938201        0.0000000000000000                1
   52.650552263562197        60.205251643905001        0.0000000000000000                1
   52.713787561121102        59.976833918016503        0.0000000000000000                1
   52.777022858679999        59.748727040098800        0.0000000000000000                1
   52.840258156239003        59.520972537973002        0.0000000000000000                1
   52.903493453797900        59.293622042071803        0.0000000000000000                1
   52.966728751356797        59.066741086571596        0.0000000000000000                1
   53.029964048915701        58.840414967457399        0.0000000000000000                1
   53.093199346474599        58.614758202827900        0.0000000000000000                1
   53.156434644033503        58.389930730136903        0.0000000000000000                1
   53.219669941592500        58.166167807522100        0.0000000000000000                1
   53.282905239151397        57.943841095660197        0.0000000000000000                1
   53.346140536710301        57.723602850475601        0.0000000000000000                1
   53.409375834269198        57.506813568155998        0.0000000000000000                1
   53.472611131828103        57.297516211982703        0.0000000000000000                1
   53.557277798494802        57.297516211982703        0.0000000000000000                1
   53.641944465161501        57.297516211982703        0.0000000000000000                1
   53.726611131828101        57.297516211982703        0.0000000000000000                1
   53.789846429386998        57.506813568155998        0.0000000000000000                1
   53.853081726946002        57.723602850475601        0.0000000000000000                1
   53.916317024504899        57.943841095660197        0.0000000000000000                1
   53.979552322063803        58.166167807522100        0.0000000000000000                1
   54.042787619622700        58.389930730136903        0.0000000000000000                1
   54.106022917181598        58.614758202827900        0.0000000000000000                1
   54.169258214740601        58.840414967457399        0.0000000000000000                1
   54.232493512299499        59.066741086571596        0.0000000000000000                1
   54.295728809858403        59.293622042071803        0.0000000000000000                1
   54.358964107417300        59.520972537973002        0.0000000000000000                1
   54.422199404976197        59.748727040098800        0.0000000000000000                1
   54.485434702535201        59.976833918016503        0.0000000000000000                1
   54.548670000094098        60.205251643905001        0.0000000000000000                1
   54.611905297653003        60.433946229938201        0.0000000000000000                1
   54.675140595211900        60.662889443967600        0.0000000000000000                1
   54.723613670131201        60.798284941312900        0.0000000000000000                1
   54.791786695525602        60.925497786033297        0.0000000000000000                1
   54.878220080512698        61.041824110939302        0.0000000000000000                1
   54.981088635257798        61.144789371837199        0.0000000000000000                1
   55.098220113001702        61.232201804021798        0.0000000000000000                1
   55.227141080793103        61.302199760305598        0.0000000000000000                1
   55.365129150287103        61.353291905875700        0.0000000000000000                1
   55.509270465665402        61.384389406513598        0.0000000000000000                1
   55.656521234721602        61.394829422301399        0.0000000000000000                1
   55.833690430531597        61.394829422301399        0.0000000000000000                1
   56.044900414419097        61.394829422301399        0.0000000000000000                1
   56.296691687105003        61.394829422301399        0.0000000000000000                1
   56.596861422616001        61.394829422301399        0.0000000000000000                1
   56.954704921938301        61.394829422301399        0.0000000000000000                1
   57.381303458893598        61.394829422301399        0.0000000000000000                1
   57.889867431907000        61.394829422301399        0.0000000000000000                1
   58.496145447985498        61.394829422301399        0.0000000000000000                1
   59.218912006933799        61.394829422301399        0.0000000000000000                1
   60.080548887836997        61.394829422301399        0.0000000000000000                1
   61.107738241496101        61.394829422301399        0.0000000000000000                1
   62.332288851684297        61.394829422301399        0.0000000000000000                1
   63.792121151902897        61.394829422301399        0.0000000000000000                1
   65.532441500470696        61.394829422301399        0.0000000000000000                1
   67.607142077506595        61.394829422301399        0.0000000000000000                1
   70.080469754158301        61.394829422301399        0.0000000000000000                1
   73.029015613643793        61.394829422301399        0.0000000000000000                1
   76.544086733237094        61.394829422301399        0.0000000000000000                1
   80.734533673735001        61.394829422301399        0.0000000000000000                1
   85.730121234751394        61.394829422301399        0.0000000000000000                1
   51.689951797990801        61.464200869007797        0.0000000000000000                1
   51.834093113369100        61.432732905505098        0.0000000000000000                1
   51.972081182863199        61.381029673840402        0.0000000000000000                1
   52.101002150654601        61.310189524623297        0.0000000000000000                1
   52.218133628398398        61.221717090585798        0.0000000000000000                1
   52.321002183143598        61.117491068857298        0.0000000000000000                1
   52.407435568130701        60.999723980916201        0.0000000000000000                1
   52.475608593525003        60.870914766705098        0.0000000000000000                1
   52.524081668444403        60.733795227224498        0.0000000000000000                1
   52.587316966003300        60.501874291790102        0.0000000000000000                1
   52.650552263562197        60.270120151804001        0.0000000000000000                1
   52.713787561121102        60.038552794574102        0.0000000000000000                1
   52.777022858679999        59.807196424694297        0.0000000000000000                1
   52.840258156239003        59.576080805968800        0.0000000000000000                1
   52.903493453797900        59.345243201597498        0.0000000000000000                1
   52.966728751356797        59.114731273011103        0.0000000000000000                1
   53.029964048915701        58.884607583447099        0.0000000000000000                1
   53.093199346474599        58.654956936632097        0.0000000000000000                1
   53.156434644033503        58.425899070769603        0.0000000000000000                1
   53.219669941592500        58.197612372620000        0.0000000000000000                1
   53.282905239151397        57.970383012893301        0.0000000000000000                1
   53.346140536710301        57.744723017019098        0.0000000000000000                1
   53.409375834269198        57.521728997047603        0.0000000000000000                1
   53.472611131828103        57.304806319304603        0.0000000000000000                1
   53.557277798494802        57.304806319304603        0.0000000000000000                1
   53.641944465161501        57.304806319304603        0.0000000000000000                1
   53.726611131828101        57.304806319304603        0.0000000000000000                1
   53.789846429386998        57.521728997047603        0.0000000000000000                1
   53.853081726946002        57.744723017019098        0.0000000000000000                1
   53.916317024504899        57.970383012893301        0.0000000000000000                1
   53.979552322063803        58.197612372620000        0.0000000000000000                1
   54.042787619622700        58.425899070769603        0.0000000000000000                1
   54.106022917181598        58.654956936632097        0.0000000000000000                1
   54.169258214740601        58.884607583447099        0.0000000000000000                1
   54.232493512299499        59.114731273011103        0.0000000000000000                1
   54.295728809858403        59.345243201597498        0.0000000000000000                1
   54.358964107417300        59.576080805968800        0.0000000000000000                1
   54.422199404976197        59.807196424694297        0.0000000000000000                1
   54.485434702535201        60.038552794574102        0.0000000000000000                1
   54.548670000094098        60.270120151804001        0.0000000000000000                1
   54.611905297653003        60.501874291790102        0.0000000000000000                1
   54.675140595211900        60.733795227224498        0.0000000000000000                1
   54.723613670131201        60.870914766705098        0.0000000000000000                1
   54.791786695525602        60.999723980916201        0.0000000000000000                1
   54.878220080512698        61.117491068857298        0.0000000000000000                1
   54.981088635257798        61.221717090585798        0.0000000000000000                1
   55.098220113001702        61.310189524623397        0.0000000000000000                1
   55.227141080793103        61.381029673840402        0.0000000000000000                1
   55.365129150287103        61.432732905505098        0.0000000000000000                1
   55.509270465665402        61.464200869007797        0.0000000000000000                1
   55.656521234721602        61.474765007937400        0.0000000000000000                1
   55.833690430531597        61.474765007937400        0.0000000000000000                1
   56.044900414419097        61.474765007937400        0.0000000000000000                1
   56.296691687105003        61.474765007937400        0.0000000000000000                1
   56.596861422616001        61.474765007937400        0.0000000000000000                1
   56.954704921938301        61.474765007937400        0.0000000000000000                1
   57.381303458893598        61.474765007937400        0.0000000000000000                1
   57.889867431907000        61.474765007937400        0.0000000000000000                1
   58.496145447985498        61.474765007937400        0.0000000000000000                1
   59.218912006933799        61.474765007937400        0.0000000000000000                1
   60.080548887836997        61.474765007937400        0.0000000000000000                1
   61.107738241496101        61.474765007937400        0.0000000000000000                1
   62.332288851684297        61.474765007937400        0.0000000000000000                1
   63.792121151902897        61.474765007937400        0.0000000000000000                1
   65.532441500470696        61.474765007937400        0.0000000000000000                1
   67.607142077506595        61.474765007937400        0.0000000000000000                1
   70.080469754158301        61.474765007937400        0.0000000000000000                1
   73.029015613643793        61.474765007937400        0.0000000000000000                1
   76.544086733237094        61.474765007937400        0.0000000000000000                1
   80.734533673735001        61.474765007937400        0.0000000000000000                1
   85.730121234751394        61.474765007937400        0.0000000000000000                1
   51.689951797990801        61.520090835334798        0.0000000000000000                1
   51.834093113369100        61.488400432955999        0.0000000000000000                1
   51.972081182863199        61.436329959494500        0.0000000000000000                1
   52.101002150654601        61.364983013580698        0.0000000000000000                1
   52.218133628398398        61.275871601124500        0.0000000000000000                1
   52.321002183143598        61.170883940699802        0.0000000000000000                1
   52.407435568130701        61.052244248430199        0.0000000000000000                1
   52.475608593525003        60.922465354003499        0.0000000000000000                1
   52.524081668444403        60.784295154588399        0.0000000000000000                1
   52.587316966003300        60.550550875962898        0.0000000000000000                1
   52.650552263562197        60.316911343949997        0.0000000000000000                1
   52.713787561121102        60.083389758702502        0.0000000000000000                1
   52.777022858679999        59.850002198393703        0.0000000000000000                1
   52.840258156239003        59.616768558260603        0.0000000000000000                1
   52.903493453797900        59.383713917213598        0.0000000000000000                1
   52.966728751356797        59.150870594297402        0.0000000000000000                1
   53.029964048915701        58.918281368905198        0.0000000000000000                1
   53.093199346474599        58.686004774814400        0.0000000000000000                1
   53.156434644033503        58.454124350064603        0.0000000000000000                1
   53.219669941592500        58.222766120095599        0.0000000000000000                1
   53.282905239151397        57.992135332748802        0.0000000000000000                1
   53.346140536710301        57.762606291829499        0.0000000000000000                1
   53.409375834269198        57.535001892859100        0.0000000000000000                1
   53.472611131828103        57.311992173609397        0.0000000000000000                1
   53.557277798494802        57.311992173609397        0.0000000000000000                1
   53.641944465161501        57.311992173609397        0.0000000000000000                1
   53.726611131828101        57.311992173609397        0.0000000000000000                1
   53.789846429386998        57.535001892859100        0.0000000000000000                1
   53.853081726946002        57.762606291829499        0.0000000000000000                1
   53.916317024504899        57.992135332748802        0.0000000000000000                1
   53.979552322063803        58.222766120095599        0.0000000000000000                1
   54.042787619622700        58.454124350064603        0.0000000000000000                1
   54.106022917181598        58.686004774814400        0.0000000000000000                1
   54.169258214740601        58.918281368905198        0.0000000000000000                1
   54.232493512299499        59.150870594297402        0.0000000000000000                1
   54.295728809858403        59.383713917213598        0.0000000000000000                1
   54.358964107417300        59.616768558260603        0.0000000000000000                1
   54.422199404976197        59.850002198393703        0.0000000000000000                1
   54.485434702535201        60.083389758702502        0.0000000000000000                1
   54.548670000094098        60.316911343949997        0.0000000000000000                1
   54.611905297653003        60.550550875962898        0.0000000000000000                1
   54.675140595211900        60.784295154588399        0.0000000000000000                1
   54.723613670131201        60.922465354003499        0.0000000000000000                1
   54.791786695525602        61.052244248430199        0.0000000000000000                1