 variables = x, y, z, active
 zone f = fepoint, et = brick, n =         3528 , e =         2556
   51.689951797990801        57.149999999999999        0.0000000000000000                1
   51.834093113369100        57.149999999999999        0.0000000000000000                1
   51.972081182863199        57.149999999999999        0.0000000000000000                1
   52.101002150654601        57.149999999999999        0.0000000000000000                1
   52.218133628398398        57.149999999999999        0.0000000000000000                1
   52.321002183143598        57.149999999999999        0.0000000000000000                1
   52.407435568130701        57.149999999999999        0.0000000000000000                1
   52.475608593525003        57.149999999999999        0.0000000000000000                1
   52.524081668444403        57.149999999999999        0.0000000000000000                1
   52.587316966003300        57.149999999999999        0.0000000000000000                1
   52.650552263562197        57.149999999999999        0.0000000000000000                1
   52.713787561121102        57.149999999999999        0.0000000000000000                1
   52.777022858679999        57.149999999999999        0.0000000000000000                1
   52.840258156239003        57.149999999999999        0.0000000000000000                1
   52.903493453797900        57.149999999999999        0.0000000000000000                1
   52.966728751356797        57.149999999999999        0.0000000000000000                1
   53.029964048915701        57.149999999999999        0.0000000000000000                1
   53.093199346474599        57.149999999999999        0.0000000000000000                1
   53.156434644033503        57.149999999999999        0.0000000000000000                1
   53.219669941592500        57.149999999999999        0.0000000000000000                1
   53.282905239151397        57.149999999999999        0.0000000000000000                1
   53.346140536710301        57.149999999999999        0.0000000000000000                1
   53.409375834269198        57.149999999999999        0.0000000000000000                1
   53.472611131828103        57.149999999999999        0.0000000000000000                1
   53.557277798494802        57.149999999999999        0.0000000000000000                1
   53.641944465161501        57.149999999999999        0.0000000000000000                1
   53.726611131828101        57.149999999999999        0.0000000000000000                1
   53.789846429386998        57.149999999999999        0.0000000000000000                1
   53.853081726946002        57.149999999999999        0.0000000000000000                1
   53.916317024504899        57.149999999999999        0.0000000000000000                1
   53.979552322063803        57.149999999999999        0.0000000000000000                1
   54.042787619622700        57.149999999999999        0.0000000000000000                1
   54.106022917181598        57.149999999999999        0.0000000000000000                1
   54.169258214740601        57.149999999999999        0.0000000000000000                1
   54.232493512299499        57.149999999999999        0.0000000000000000                1
   54.295728809858403        57.149999999999999        0.0000000000000000                1
   54.358964107417300        57.149999999999999        0.0000000000000000                1
   54.422199404976197        57.149999999999999        0.0000000000000000                1
   54.485434702535201        57.149999999999999        0.0000000000000000                1
   54.548670000094098        57.149999999999999        0.0000000000000000                1
   54.611905297653003        57.149999999999999        0.0000000000000000                1
   54.675140595211900        57.149999999999999        0.0000000000000000                1
   54.723613670131201        57.149999999999999        0.0000000000000000                1
   54.791786695525602        57.149999999999999        0.0000000000000000                1
   54.878220080512698        57.149999999999999        0.0000000000000000                1
   54.981088635257798        57.149999999999999        0.0000000000000000                1
   55.098220113001702        57.149999999999999        0.0000000000000000                1
   55.227141080793103        57.149999999999999        0.0000000000000000                1
   55.365129150287103        57.149999999999999        0.0000000000000000                1
   55.509270465665402        57.149999999999999        0.0000000000000000                1
   55.656521234721602        57.149999999999999        0.0000000000000000                1
   55.833690430531597        57.149999999999999        0.0000000000000000                1
   56.044900414419097        57.149999999999999        0.0000000000000000                1
   56.296691687105003        57.149999999999999        0.0000000000000000                1
   56.596861422616001        57.149999999999999        0.0000000000000000                1
   56.954704921938301        57.149999999999999        0.0000000000000000                1
   57.381303458893598        57.149999999999999        0.0000000000000000                1
   57.889867431907000        57.149999999999999        0.0000000000000000                1
   58.496145447985498        57.149999999999999        0.0000000000000000                1
   59.218912006933799        57.149999999999999        0.0000000000000000                1
   60.080548887836997        57.149999999999999        0.0000000000000000                1
   61.107738241496101        57.149999999999999        0.0000000000000000                1
   62.332288851684297        57.149999999999999        0.0000000000000000                1
   63.792121151902897        57.149999999999999        0.0000000000000000                1
   65.532441500470696        57.149999999999999        0.0000000000000000                1
   67.607142077506595        57.149999999999999        0.0000000000000000                1
   70.080469754158301        57.149999999999999        0.0000000000000000                1
   73.029015613643793        57.149999999999999        0.0000000000000000                1
   76.544086733237094        57.149999999999999        0.0000000000000000                1
   80.734533673735001        57.149999999999999        0.0000000000000000                1
   85.730121234751394        57.149999999999999        0.0000000000000000                1
   51.689951797990801        57.156590909090902        0.0000000000000000                1
   51.834093113369100        57.156590909090902        0.0000000000000000                1
   51.972081182863199        57.156590909090902        0.0000000000000000                1
   52.101002150654601        57.156590909090902        0.0000000000000000                1
   52.218133628398398        57.156590909090902        0.0000000000000000                1
   52.321002183143598        57.156590909090902        0.0000000000000000                1
   52.407435568130701        57.156590909090902        0.0000000000000000                1
   52.475608593525003        57.156590909090902        0.0000000000000000                1
   52.524081668444403        57.156590909090902        0.0000000000000000                1
   52.587316966003300        57.156590909090902        0.0000000000000000                1
   52.650552263562197        57.156590909090902        0.0000000000000000                1
   52.713787561121102        57.156590909090902        0.0000000000000000                1
   52.777022858679999        57.156590909090902        0.0000000000000000                1
   52.840258156239003        57.156590909090902        0.0000000000000000                1
   52.903493453797900        57.156590909090902        0.0000000000000000                1
   52.966728751356797        57.156590909090902        0.0000000000000000                1
   53.029964048915701        57.156590909090902        0.0000000000000000                1
   53.093199346474599        57.156590909090902        0.0000000000000000                1
   53.156434644033503        57.156590909090902        0.0000000000000000                1
   53.219669941592500        57.156590909090902        0.0000000000000000                1
   53.282905239151397        57.156590909090902        0.0000000000000000                1
   53.346140536710301        57.156590909090902        0.0000000000000000                1
   53.409375834269198        57.156590909090902        0.0000000000000000                1
   53.472611131828103        57.156590909090902        0.0000000000000000                1
   53.557277798494802        57.156590909090902        0.0000000000000000                1
   53.641944465161501        57.156590909090902        0.0000000000000000                1
   53.726611131828101        57.156590909090902        0.0000000000000000                1
   53.789846429386998        57.156590909090902        0.0000000000000000                1
   53.853081726946002        57.156590909090902        0.0000000000000000                1
   53.916317024504899        57.156590909090902        0.0000000000000000                1
   53.979552322063803        57.156590909090902        0.0000000000000000                1
   54.042787619622700        57.156590909090902        0.0000000000000000                1
   54.106022917181598        57.156590909090902        0.0000000000000000                1
   54.169258214740601        57.156590909090902        0.0000000000000000                1
   54.232493512299499        57.156590909090902        0.0000000000000000                1
   54.295728809858403        57.156590909090902        0.0000000000000000                1
   54.358964107417300        57.156590909090902        0.0000000000000000                1
   54.422199404976197        57.156590909090902        0.0000000000000000                1
   54.485434702535201        57.156590909090902        0.0000000000000000                1
   54.548670000094098        57.156590909090902        0.0000000000000000                1
   54.611905297653003        57.156590909090902        0.0000000000000000                1
   54.675140595211900        57.156590909090902        0.0000000000000000                1
   54.723613670131201        57.156590909090902        0.0000000000000000                1
   54.791786695525602        57.156590909090902        0.0000000000000000                1
   54.878220080512698        57.156590909090902        0.0000000000000000                1
   54.981088635257798        57.156590909090902        0.0000000000000000                1
   55.098220113001702        57.156590909090902        0.0000000000000000                1
   55.227141080793103        57.156590909090902        0.0000000000000000                1
   55.365129150287103        57.156590909090902        0.0000000000000000                1
   55.509270465665402        57.156590909090902        0.0000000000000000                1
   55.656521234721602        57.156590909090902        0.0000000000000000                1
   55.833690430531597        57.156590909090902        0.0000000000000000                1
   56.044900414419097        57.156590909090902        0.0000000000000000                1
   56.296691687105003        57.156590909090902        0.0000000000000000                1
   56.596861422616001        57.156590909090902        0.0000000000000000                1
   56.954704921938301        57.156590909090902        0.0000000000000000                1
   57.381303458893598        57.156590909090902        0.0000000000000000                1
   57.889867431907000        57.156590909090902        0.0000000000000000                1
   58.496145447985498        57.156590909090902        0.0000000000000000                1
   59.218912006933799        57.156590909090902        0.0000000000000000                1
   60.080548887836997        57.156590909090902        0.0000000000000000                1
   61.107738241496101        57.156590909090902        0.0000000000000000                1
   62.332288851684297        57.156590909090902        0.0000000000000000                1
   63.792121151902897        57.156590909090902        0.0000000000000000                1
   65.532441500470696        57.156590909090902        0.0000000000000000                1
   67.607142077506595        57.156590909090902        0.0000000000000000                1
   70.080469754158301        57.156590909090902        0.0000000000000000                1
   73.029015613643793        57.156590909090902        0.0000000000000000                1
   76.544086733237094        57.156590909090902        0.0000000000000000                1
   80.734533673735001        57.156590909090902        0.0000000000000000                1
   85.730121234751394        57.156590909090902        0.0000000000000000                1
   51.689951797990801        57.166002796917702        0.0000000000000000                1
   51.834093113369100        57.165996543410003        0.0000000000000000                1
   51.972081182863199        57.165986173285397        0.0000000000000000                1
   52.101002150654601        57.165971767774501        0.0000000000000000                1
   52.218133628398398        57.165953445946997        0.0000000000000000                1
   52.321002183143598        57.165931370160202        0.0000000000000000                1
   52.407435568130701        57.165905753165298        0.0000000000000000                1
   52.475608593525003        57.165876866856600        0.0000000000000000                1
   52.524081668444403        57.165845052529598        0.0000000000000000                1
   52.587316966003300        57.165788507648699        0.0000000000000000                1
   52.650552263562197        57.165728150926803        0.0000000000000000                1
   52.713787561121102        57.165663412381299        0.0000000000000000                1
   52.777022858679999        57.165593582449297        0.0000000000000000                1
   52.840258156239003        57.165517762113197        0.0000000000000000                1
   52.903493453797900        57.165434788497699        0.0000000000000000                1
   52.966728751356797        57.165343119835903        0.0000000000000000                1
   53.029964048915701        57.165240649846702        0.0000000000000000                1
   53.093199346474599        57.165124392115302        0.0000000000000000                1
   53.156434644033503        57.164989907052401        0.0000000000000000                1
   53.219669941592500        57.164830169271298        0.0000000000000000                1
   53.282905239151397        57.164633056537397        0.0000000000000000                1
   53.346140536710301        57.164374779726998        0.0000000000000000                1
   53.409375834269198        57.163997449251603        0.0000000000000000                1
   53.472611131828103        57.163277439680499        0.0000000000000000                1
   53.557277798494802        57.163277439680499        0.0000000000000000                1
   53.641944465161501        57.163277439680499        0.0000000000000000                1
   53.726611131828101        57.163277439680499        0.0000000000000000                1
   53.789846429386998        57.163997449251603        0.0000000000000000                1
   53.853081726946002        57.164374779726998        0.0000000000000000                1
   53.916317024504899        57.164633056537397        0.0000000000000000                1
   53.979552322063803        57.164830169271298        0.0000000000000000                1
   54.042787619622700        57.164989907052401        0.0000000000000000                1
   54.106022917181598        57.165124392115302        0.0000000000000000                1
   54.169258214740601        57.165240649846702        0.0000000000000000                1
   54.232493512299499        57.165343119835903        0.0000000000000000                1
   54.295728809858403        57.165434788497699        0.0000000000000000                1
   54.358964107417300        57.165517762113197        0.0000000000000000                1
   54.422199404976197        57.165593582449297        0.0000000000000000                1
   54.485434702535201        57.165663412381299        0.0000000000000000                1
   54.548670000094098        57.165728150926803        0.0000000000000000                1
   54.611905297653003        57.165788507648699        0.0000000000000000                1
   54.675140595211900        57.165845052529598        0.0000000000000000                1
   54.723613670131201        57.165876866856600        0.0000000000000000                1
   54.791786695525602        57.165905753165298        0.0000000000000000                1
   54.878220080512698        57.165931370160202        0.0000000000000000                1
   54.981088635257798        57.165953445946997        0.0000000000000000                1
   55.098220113001702        57.165971767774501        0.0000000000000000                1
   55.227141080793103        57.165986173285397        0.0000000000000000                1
   55.365129150287103        57.165996543410003        0.0000000000000000                1
   55.509270465665402        57.166002796917702        0.0000000000000000                1
   55.656521234721602        57.166004886583799        0.0000000000000000                1
   55.833690430531597        57.166004886583799        0.0000000000000000                1
   56.044900414419097        57.166004886583799        0.0000000000000000                1
   56.296691687105003        57.166004886583799        0.0000000000000000                1
   56.596861422616001        57.166004886583799        0.0000000000000000                1
   56.954704921938301        57.166004886583799        0.0000000000000000                1
   57.381303458893598        57.166004886583799        0.0000000000000000                1
   57.889867431907000        57.166004886583799        0.0000000000000000                1
   58.496145447985498        57.166004886583799        0.0000000000000000                1
   59.218912006933799        57.166004886583799        0.0000000000000000                1
   60.080548887836997        57.166004886583799        0.0000000000000000                1
   61.107738241496101        57.166004886583799        0.0000000000000000                1
   62.332288851684297        57.166004886583799        0.0000000000000000                1
   63.792121151902897        57.166004886583799        0.0000000000000000                1
   65.532441500470696        57.166004886583799        0.0000000000000000                1
   67.607142077506595        57.166004886583799        0.0000000000000000                1
   70.080469754158301        57.166004886583799        0.0000000000000000                1
   73.029015613643793        57.166004886583799        0.0000000000000000                1
   76.544086733237094        57.166004886583799        0.0000000000000000                1
   80.734533673735001        57.166004886583799        0.0000000000000000                1
   85.730121234751394        57.166004886583799        0.0000000000000000                1
   51.689951797990801        57.179443072188000        0.0000000000000000                1
   51.834093113369100        57.179418964463501        0.0000000000000000                1
   51.972081182863199        57.179379013038897        0.0000000000000000                1
   52.101002150654601        57.179323569237503        0.0000000000000000                1
   52.218133628398398        57.179253143328999        0.0000000000000000                1
   52.321002183143598        57.179168423165201        0.0000000000000000                1
   52.407435568130701        57.179070298288401        0.0000000000000000                1
   52.475608593525003        57.178959889310200        0.0000000000000000                1
   52.524081668444403        57.178838581889700        0.0000000000000000                1
   52.587316966003300        57.178623735394197        0.0000000000000000                1
   52.650552263562197        57.178395476058299        0.0000000000000000                1
   52.713787561121102        57.178151874112203        0.0000000000000000                1
   52.777022858679999        57.177890539740098        0.0000000000000000                1
   52.840258156239003        57.177608462164301        0.0000000000000000                1
   52.903493453797900        57.177301771015998        0.0000000000000000                1
   52.966728751356797        57.176965369796903        0.0000000000000000                1
   53.029964048915701        57.176592348695799        0.0000000000000000                1
   53.093199346474599        57.176172994291903        0.0000000000000000                1
   53.156434644033503        57.175693008215497        0.0000000000000000                1
   53.219669941592500        57.175130024326798        0.0000000000000000                1
   53.282905239151397        57.174445987448600        0.0000000000000000                1
   53.346140536710301        57.173567539214901        0.0000000000000000                1
   53.409375834269198        57.172320555577997        0.0000000000000000                1
   53.472611131828103        57.170060979054099        0.0000000000000000                1
   53.557277798494802        57.170060979054099        0.0000000000000000                1
   53.641944465161501        57.170060979054099        0.0000000000000000                1
   53.726611131828101        57.170060979054099        0.0000000000000000                1
   53.789846429386998        57.172320555577997        0.0000000000000000                1
   53.853081726946002        57.173567539214901        0.0000000000000000                1
   53.916317024504899        57.174445987448600        0.0000000000000000                1
   53.979552322063803        57.175130024326798        0.0000000000000000                1
   54.042787619622700        57.175693008215497        0.0000000000000000                1
   54.106022917181598        57.176172994291903        0.0000000000000000                1
   54.169258214740601        57.176592348695799        0.0000000000000000                1
   54.232493512299499        57.176965369796903        0.0000000000000000                1
   54.295728809858403        57.177301771015998        0.0000000000000000                1
   54.358964107417300        57.177608462164301        0.0000000000000000                1
   54.422199404976197        57.177890539740098        0.0000000000000000                1
   54.485434702535201        57.178151874112203        0.0000000000000000                1
   54.548670000094098        57.178395476058299        0.0000000000000000                1
   54.611905297653003        57.178623735394197        0.0000000000000000                1
   54.675140595211900        57.178838581889700        0.0000000000000000                1
   54.723613670131201        57.178959889310200        0.0000000000000000                1
   54.791786695525602        57.179070298288401        0.0000000000000000                1
   54.878220080512698        57.179168423165201        0.0000000000000000                1
   54.981088635257798        57.179253143328999        0.0000000000000000                1
   55.098220113001702        57.179323569237503        0.0000000000000000                1
   55.227141080793103        57.179379013038897        0.0000000000000000                1
   55.365129150287103        57.179418964463501        0.0000000000000000                1
   55.509270465665402        57.179443072188000        0.0000000000000000                1
   55.656521234721602        57.179451130647401        0.0000000000000000                1
   55.833690430531597        57.179451130647401        0.0000000000000000                1
   56.044900414419097        57.179451130647401        0.0000000000000000                1
   56.296691687105003        57.179451130647401        0.0000000000000000                1
   56.596861422616001        57.179451130647401        0.0000000000000000                1
   56.954704921938301        57.179451130647401        0.0000000000000000                1
   57.381303458893598        57.179451130647401        0.0000000000000000                1
   57.889867431907000        57.179451130647401        0.0000000000000000                1
   58.496145447985498        57.179451130647401        0.0000000000000000                1
   59.218912006933799        57.179451130647401        0.0000000000000000                1
   60.080548887836997        57.179451130647401        0.0000000000000000                1
   61.107738241496101        57.179451130647401        0.0000000000000000                1
   62.332288851684297        57.179451130647401        0.0000000000000000                1
   63.792121151902897        57.179451130647401        0.0000000000000000                1
   65.532441500470696        57.179451130647401        0.0000000000000000                1
   67.607142077506595        57.179451130647401        0.0000000000000000                1
   70.080469754158301        57.179451130647401        0.0000000000000000                1
   73.029015613643793        57.179451130647401        0.0000000000000000                1
   76.544086733237094        57.179451130647401        0.0000000000000000                1
   80.734533673735001        57.179451130647401        0.0000000000000000                1
   85.730121234751394        57.179451130647401        0.0000000000000000                1
   51.689951797990801        57.198635927294902        0.0000000000000000                1
   51.834093113369100        57.198573588258903        0.0000000000000000                1
   51.972081182863199        57.198470350222301        0.0000000000000000                1
   52.101002150654601        57.198327224267302        0.0000000000000000                1
   52.218133628398398        57.198145667136700        0.0000000000000000                1
   52.321002183143598        57.197927622626203        0.0000000000000000                1
   52.407435568130701        57.197675574653402        0.0000000000000000                1
   52.475608593525003        57.197392611151201        0.0000000000000000                1
   52.524081668444403        57.197082496775302        0.0000000000000000                1
   52.587316966003300        57.196535266348803        0.0000000000000000                1
   52.650552263562197        57.195956697362298        0.0000000000000000                1
   52.713787561121102        57.195342463237701        0.0000000000000000                1
   52.777022858679999        57.194687234743000        0.0000000000000000                1
   52.840258156239003        57.193984336994902        0.0000000000000000                1
   52.903493453797900        57.193225243918803        0.0000000000000000                1
   52.966728751356797        57.192398806912600        0.0000000000000000                1
   53.029964048915701        57.191490028337299        0.0000000000000000                1
   53.093199346474599        57.190478010158003        0.0000000000000000                1
   53.156434644033503        57.189332298882498        0.0000000000000000                1
   53.219669941592500        57.188005818007497        0.0000000000000000                1
   53.282905239151397        57.186419606896600        0.0000000000000000                1
   53.346140536710301        57.184424197933097        0.0000000000000000                1
   53.409375834269198        57.181673653977299        0.0000000000000000                1
   53.472611131828103        57.176942934623902        0.0000000000000000                1
   53.557277798494802        57.176942934623902        0.0000000000000000                1
   53.641944465161501        57.176942934623902        0.0000000000000000                1
   53.726611131828101        57.176942934623902        0.0000000000000000                1
   53.789846429386998        57.181673653977299        0.0000000000000000                1
   53.853081726946002        57.184424197933097        0.0000000000000000                1
   53.916317024504899        57.186419606896600        0.0000000000000000                1
   53.979552322063803        57.188005818007497        0.0000000000000000                1
   54.042787619622700        57.189332298882498        0.0000000000000000                1
   54.106022917181598        57.190478010158003        0.0000000000000000                1
   54.169258214740601        57.191490028337299        0.0000000000000000                1
   54.232493512299499        57.192398806912600        0.0000000000000000                1
   54.295728809858403        57.193225243918803        0.0000000000000000                1
   54.358964107417300        57.193984336994902        0.0000000000000000                1
   54.422199404976197        57.194687234743000        0.0000000000000000                1
   54.485434702535201        57.195342463237701        0.0000000000000000                1
   54.548670000094098        57.195956697362298        0.0000000000000000                1
   54.611905297653003        57.196535266348803        0.0000000000000000                1
   54.675140595211900        57.197082496775302        0.0000000000000000                1
   54.723613670131201        57.197392611151201        0.0000000000000000                1
   54.791786695525602        57.197675574653402        0.0000000000000000                1