 variables = x, y, z, active
 zone f = fepoint, et = brick, n =         4088 , e =         3024
   45.708088398284502        59.131410927853302        0.0000000000000000                1
   45.771323695843400        59.345239428714699        0.0000000000000000                1
   45.834558993402403        59.559773395162402        0.0000000000000000                1
   45.897794290961301        59.774931794916498        0.0000000000000000                1
   45.961029588520198        59.990648513282501        0.0000000000000000                1
   46.024264886079102        60.206868725566800        0.0000000000000000                1
   46.087500183637999        60.423546336107201        0.0000000000000000                1
   46.135973258557399        60.551785542653001        0.0000000000000000                1
   46.204146283951701        60.672337030754903        0.0000000000000000                1
   46.290579668938797        60.782622871202797        0.0000000000000000                1
   46.393448223683997        60.880280491857299        0.0000000000000000                1
   46.510579701427801        60.963214882249197        0.0000000000000000                1
   46.639500669219203        61.029644906480399        0.0000000000000000                1
   46.777488738713203        61.078142679360099        0.0000000000000000                1
   46.921630054091501        61.107665128758697        0.0000000000000000                1
   47.068880823147701        61.117577047449899        0.0000000000000000                1
   47.158880823147697        61.117577047449899        0.0000000000000000                1
   47.248880823147701        61.117577047449899        0.0000000000000000                1
   47.396131592203901        61.107665128758697        0.0000000000000000                1
   47.540272907582199        61.078142679360099        0.0000000000000000                1
   47.678260977076299        61.029644906480399        0.0000000000000000                1
   47.807181944867700        60.963214882249197        0.0000000000000000                1
   47.924313422611498        60.880280491857299        0.0000000000000000                1
   48.027181977356598        60.782622871202797        0.0000000000000000                1
   48.113615362343701        60.672337030754903        0.0000000000000000                1
   48.181788387738102        60.551785542653001        0.0000000000000000                1
   48.230261462657403        60.423546336107201        0.0000000000000000                1
   48.293496760216300        60.206868725566800        0.0000000000000000                1
   48.356732057775297        59.990648513282501        0.0000000000000000                1
   48.419967355334201        59.774931794916498        0.0000000000000000                1
   48.483202652893098        59.559773395162402        0.0000000000000000                1
   48.546437950452002        59.345239428714699        0.0000000000000000                1
   48.609673248010900        59.131410927853302        0.0000000000000000                1
   48.672908545569797        58.918389143857603        0.0000000000000000                1
   48.736143843128801        58.706303583502603        0.0000000000000000                1
   48.799379140687698        58.495324749950903        0.0000000000000000                1
   48.862614438246602        58.285685504078302        0.0000000000000000                1
   48.925849735805500        58.077719551317699        0.0000000000000000                1
   48.989085033364397        57.871937811086703        0.0000000000000000                1
   49.052320330923401        57.669202273768903        0.0000000000000000                1
   49.115555628482298        57.471216896978802        0.0000000000000000                1
   49.178790926041202        57.282617166295402        0.0000000000000000                1
   49.263457592707901        57.282617166295402        0.0000000000000000                1
   49.348124259374501        57.282617166295402        0.0000000000000000                1
   49.432790926041200        57.282617166295402        0.0000000000000000                1
   49.496026223600097        57.471216896978802        0.0000000000000000                1
   49.559261521159002        57.669202273768903        0.0000000000000000                1
   49.622496818717899        57.871937811086703        0.0000000000000000                1
   49.685732116276903        58.077719551317699        0.0000000000000000                1
   49.748967413835800        58.285685504078302        0.0000000000000000                1
   49.812202711394697        58.495324749950903        0.0000000000000000                1
   49.875438008953601        58.706303583502603        0.0000000000000000                1
   49.938673306512499        58.918389143857603        0.0000000000000000                1
   50.001908604071502        59.131410927853302        0.0000000000000000                1
   50.065143901630400        59.345239428714699        0.0000000000000000                1
   50.128379199189297        59.559773395162402        0.0000000000000000                1
   50.191614496748201        59.774931794916498        0.0000000000000000                1
   50.254849794307098        59.990648513282501        0.0000000000000000                1
   50.318085091866003        60.206868725566800        0.0000000000000000                1
   50.381320389424999        60.423546336107201        0.0000000000000000                1
   50.429793464344300        60.551785542653001        0.0000000000000000                1
   50.497966489738701        60.672337030754903        0.0000000000000000                1
   50.584399874725797        60.782622871202797        0.0000000000000000                1
   50.687268429470898        60.880280491857299        0.0000000000000000                1
   50.804399907214702        60.963214882249197        0.0000000000000000                1
   50.933320875006103        61.029644906480399        0.0000000000000000                1
   51.071308944500203        61.078142679360099        0.0000000000000000                1
   51.215450259878502        61.107665128758697        0.0000000000000000                1
   51.362701028934701        61.117577047449899        0.0000000000000000                1
   51.452701028934698        61.117577047449899        0.0000000000000000                1
   51.542701028934701        61.117577047449899        0.0000000000000000                1
   45.708088398284502        59.224355222671598        0.0000000000000000                1
   45.771323695843400        59.446332848375199        0.0000000000000000                1
   45.834558993402403        59.668862371398198        0.0000000000000000                1
   45.897794290961301        59.891876789504401        0.0000000000000000                1
   45.961029588520198        60.115321827542999        0.0000000000000000                1
   46.024264886079102        60.339152775027898        0.0000000000000000                1
   46.087500183637999        60.563332269101700        0.0000000000000000                1
   46.135973258557399        60.695956494384099        0.0000000000000000                1
   46.204146283951701        60.820594892967698        0.0000000000000000                1
   46.290579668938797        60.934590910644999        0.0000000000000000                1
   46.393448223683997        61.035511790838200        0.0000000000000000                1
   46.510579701427801        61.121201670970002        0.0000000000000000                1
   46.639500669219203        61.189828636098703        0.0000000000000000                1
   46.777488738713203        61.239924693227202        0.0000000000000000                1
   46.921630054091501        61.270417794718902        0.0000000000000000                1
   47.068880823147701        61.280655217547498        0.0000000000000000                1
   47.158880823147697        61.280655217547498        0.0000000000000000                1
   47.248880823147701        61.280655217547498        0.0000000000000000                1
   47.396131592203901        61.270417794718902        0.0000000000000000                1
   47.540272907582199        61.239924693227202        0.0000000000000000                1
   47.678260977076299        61.189828636098703        0.0000000000000000                1
   47.807181944867700        61.121201670970002        0.0000000000000000                1
   47.924313422611498        61.035511790838200        0.0000000000000000                1
   48.027181977356598        60.934590910644999        0.0000000000000000                1
   48.113615362343701        60.820594892967698        0.0000000000000000                1
   48.181788387738102        60.695956494384099        0.0000000000000000                1
   48.230261462657403        60.563332269101700        0.0000000000000000                1
   48.293496760216300        60.339152775027898        0.0000000000000000                1
   48.356732057775297        60.115321827542999        0.0000000000000000                1
   48.419967355334201        59.891876789504401        0.0000000000000000                1
   48.483202652893098        59.668862371398198        0.0000000000000000                1
   48.546437950452002        59.446332848375199        0.0000000000000000                1
   48.609673248010900        59.224355222671598        0.0000000000000000                1
   48.672908545569797        59.003013879957500        0.0000000000000000                1
   48.736143843128801        58.782417706934098        0.0000000000000000                1
   48.799379140687698        58.562711480928300        0.0000000000000000                1
   48.862614438246602        58.344095168534601        0.0000000000000000                1
   48.925849735805500        58.126859124982602        0.0000000000000000                1
   48.989085033364397        57.911454969716502        0.0000000000000000                1
   49.052320330923401        57.698659911357502        0.0000000000000000                1
   49.115555628482298        57.490052341203103        0.0000000000000000                1
   49.178790926041202        57.290120339131498        0.0000000000000000                1
   49.263457592707901        57.290120339131498        0.0000000000000000                1
   49.348124259374501        57.290120339131498        0.0000000000000000                1
   49.432790926041200        57.290120339131498        0.0000000000000000                1
   49.496026223600097        57.490052341203103        0.0000000000000000                1
   49.559261521159002        57.698659911357502        0.0000000000000000                1
   49.622496818717899        57.911454969716502        0.0000000000000000                1
   49.685732116276903        58.126859124982602        0.0000000000000000                1
   49.748967413835800        58.344095168534601        0.0000000000000000                1
   49.812202711394697        58.562711480928300        0.0000000000000000                1
   49.875438008953601        58.782417706934098        0.0000000000000000                1
   49.938673306512499        59.003013879957500        0.0000000000000000                1
   50.001908604071502        59.224355222671598        0.0000000000000000                1
   50.065143901630400        59.446332848375199        0.0000000000000000                1
   50.128379199189297        59.668862371398198        0.0000000000000000                1
   50.191614496748201        59.891876789504401        0.0000000000000000                1
   50.254849794307098        60.115321827542999        0.0000000000000000                1
   50.318085091866003        60.339152775027898        0.0000000000000000                1
   50.381320389424999        60.563332269101700        0.0000000000000000                1
   50.429793464344300        60.695956494384099        0.0000000000000000                1
   50.497966489738701        60.820594892967698        0.0000000000000000                1
   50.584399874725797        60.934590910644999        0.0000000000000000                1
   50.687268429470898        61.035511790838200        0.0000000000000000                1
   50.804399907214702        61.121201670970002        0.0000000000000000                1
   50.933320875006103        61.189828636098703        0.0000000000000000                1
   51.071308944500203        61.239924693227202        0.0000000000000000                1
   51.215450259878502        61.270417794718902        0.0000000000000000                1
   51.362701028934701        61.280655217547498        0.0000000000000000                1
   51.452701028934698        61.280655217547498        0.0000000000000000                1
   51.542701028934701        61.280655217547498        0.0000000000000000                1
   45.708088398284502        59.293622042071803        0.0000000000000000                1
   45.771323695843400        59.520972537973002        0.0000000000000000                1
   45.834558993402403        59.748727040098800        0.0000000000000000                1
   45.897794290961301        59.976833918016503        0.0000000000000000                1
   45.961029588520198        60.205251643905001        0.0000000000000000                1
   46.024264886079102        60.433946229938201        0.0000000000000000                1
   46.087500183637999        60.662889443967600        0.0000000000000000                1
   46.135973258557399        60.798284941312900        0.0000000000000000                1
   46.204146283951701        60.925497786033297        0.0000000000000000                1
   46.290579668938797        61.041824110939302        0.0000000000000000                1
   46.393448223683997        61.144789371837199        0.0000000000000000                1
   46.510579701427801        61.232201804021798        0.0000000000000000                1
   46.639500669219203        61.302199760305598        0.0000000000000000                1
   46.777488738713203        61.353291905875700        0.0000000000000000                1
   46.921630054091501        61.384389406513598        0.0000000000000000                1
   47.068880823147701        61.394829422301399        0.0000000000000000                1
   47.158880823147697        61.394829422301399        0.0000000000000000                1
   47.248880823147701        61.394829422301399        0.0000000000000000                1
   47.396131592203901        61.384389406513598        0.0000000000000000                1
   47.540272907582199        61.353291905875700        0.0000000000000000                1
   47.678260977076299        61.302199760305598        0.0000000000000000                1
   47.807181944867700        61.232201804021798        0.0000000000000000                1
   47.924313422611498        61.144789371837199        0.0000000000000000                1
   48.027181977356598        61.041824110939302        0.0000000000000000                1
   48.113615362343701        60.925497786033297        0.0000000000000000                1
   48.181788387738102        60.798284941312900        0.0000000000000000                1
   48.230261462657403        60.662889443967600        0.0000000000000000                1
   48.293496760216300        60.433946229938201        0.0000000000000000                1
   48.356732057775297        60.205251643905001        0.0000000000000000                1
   48.419967355334201        59.976833918016503        0.0000000000000000                1
   48.483202652893098        59.748727040098800        0.0000000000000000                1
   48.546437950452002        59.520972537973002        0.0000000000000000                1
   48.609673248010900        59.293622042071803        0.0000000000000000                1
   48.672908545569797        59.066741086571596        0.0000000000000000                1
   48.736143843128801        58.840414967457399        0.0000000000000000                1
   48.799379140687698        58.614758202827900        0.0000000000000000                1
   48.862614438246602        58.389930730136903        0.0000000000000000                1
   48.925849735805500        58.166167807522100        0.0000000000000000                1
   48.989085033364397        57.943841095660197        0.0000000000000000                1
   49.052320330923401        57.723602850475601        0.0000000000000000                1
   49.115555628482298        57.506813568155998        0.0000000000000000                1
   49.178790926041202        57.297516211982703        0.0000000000000000                1
   49.263457592707901        57.297516211982703        0.0000000000000000                1
   49.348124259374501        57.297516211982703        0.0000000000000000                1
   49.432790926041200        57.297516211982703        0.0000000000000000                1
   49.496026223600097        57.506813568155998        0.0000000000000000                1
   49.559261521159002        57.723602850475601        0.0000000000000000                1
   49.622496818717899        57.943841095660197        0.0000000000000000                1
   49.685732116276903        58.166167807522100        0.0000000000000000                1
   49.748967413835800        58.389930730136903        0.0000000000000000                1
   49.812202711394697        58.614758202827900        0.0000000000000000                1
   49.875438008953601        58.840414967457399        0.0000000000000000                1
   49.938673306512499        59.066741086571596        0.0000000000000000                1
   50.001908604071502        59.293622042071803        0.0000000000000000                1
   50.065143901630400        59.520972537973002        0.0000000000000000                1
   50.128379199189297        59.748727040098800        0.0000000000000000                1
   50.191614496748201        59.976833918016503        0.0000000000000000                1
   50.254849794307098        60.205251643905001        0.0000000000000000                1
   50.318085091866003        60.433946229938201        0.0000000000000000                1
   50.381320389424999        60.662889443967600        0.0000000000000000                1
   50.429793464344300        60.798284941312900        0.0000000000000000                1
   50.497966489738701        60.925497786033297        0.0000000000000000                1
   50.584399874725797        61.041824110939302        0.0000000000000000                1
   50.687268429470898        61.144789371837199        0.0000000000000000                1
   50.804399907214702        61.232201804021798        0.0000000000000000                1
   50.933320875006103        61.302199760305598        0.0000000000000000                1
   51.071308944500203        61.353291905875700        0.0000000000000000                1
   51.215450259878502        61.384389406513598        0.0000000000000000                1
   51.362701028934701        61.394829422301399        0.0000000000000000                1
   51.452701028934698        61.394829422301399        0.0000000000000000                1
   51.542701028934701        61.394829422301399        0.0000000000000000                1
   45.708088398284502        59.345243201597498        0.0000000000000000                1
   45.771323695843400        59.576080805968800        0.0000000000000000                1
   45.834558993402403        59.807196424694297        0.0000000000000000                1
   45.897794290961301        60.038552794574102        0.0000000000000000                1
   45.961029588520198        60.270120151804001        0.0000000000000000                1
   46.024264886079102        60.501874291790102        0.0000000000000000                1
   46.087500183637999        60.733795227224498        0.0000000000000000                1
   46.135973258557399        60.870914766705098        0.0000000000000000                1
   46.204146283951701        60.999723980916201        0.0000000000000000                1
   46.290579668938797        61.117491068857298        0.0000000000000000                1
   46.393448223683997        61.221717090585798        0.0000000000000000                1
   46.510579701427801        61.310189524623397        0.0000000000000000                1
   46.639500669219203        61.381029673840402        0.0000000000000000                1
   46.777488738713203        61.432732905505098        0.0000000000000000                1
   46.921630054091501        61.464200869007797        0.0000000000000000                1
   47.068880823147701        61.474765007937400        0.0000000000000000                1
   47.158880823147697        61.474765007937400        0.0000000000000000                1
   47.248880823147701        61.474765007937400        0.0000000000000000                1
   47.396131592203901        61.464200869007797        0.0000000000000000                1
   47.540272907582199        61.432732905505098        0.0000000000000000                1
   47.678260977076299        61.381029673840402        0.0000000000000000                1
   47.807181944867700        61.310189524623297        0.0000000000000000                1
   47.924313422611498        61.221717090585798        0.0000000000000000                1
   48.027181977356598        61.117491068857298        0.0000000000000000                1
   48.113615362343701        60.999723980916201        0.0000000000000000                1
   48.181788387738102        60.870914766705098        0.0000000000000000                1
   48.230261462657403        60.733795227224498        0.0000000000000000                1
   48.293496760216300        60.501874291790102        0.0000000000000000                1
   48.356732057775297        60.270120151804001        0.0000000000000000                1
   48.419967355334201        60.038552794574102        0.0000000000000000                1
   48.483202652893098        59.807196424694297        0.0000000000000000                1
   48.546437950452002        59.576080805968800        0.0000000000000000                1
   48.609673248010900        59.345243201597498        0.0000000000000000                1
   48.672908545569797        59.114731273011103        0.0000000000000000                1
   48.736143843128801        58.884607583447099        0.0000000000000000                1
   48.799379140687698        58.654956936632097        0.0000000000000000                1
   48.862614438246602        58.425899070769603        0.0000000000000000                1
   48.925849735805500        58.197612372620000        0.0000000000000000                1
   48.989085033364397        57.970383012893301        0.0000000000000000                1
   49.052320330923401        57.744723017019098        0.0000000000000000                1
   49.115555628482298        57.521728997047603        0.0000000000000000                1
   49.178790926041202        57.304806319304603        0.0000000000000000                1
   49.263457592707901        57.304806319304603        0.0000000000000000                1
   49.348124259374501        57.304806319304603        0.0000000000000000                1
   49.432790926041200        57.304806319304603        0.0000000000000000                1
   49.496026223600097        57.521728997047603        0.0000000000000000                1
   49.559261521159002        57.744723017019098        0.0000000000000000                1
   49.622496818717899        57.970383012893301        0.0000000000000000                1
   49.685732116276903        58.197612372620000        0.0000000000000000                1
   49.748967413835800        58.425899070769603        0.0000000000000000                1
   49.812202711394697        58.654956936632097        0.0000000000000000                1
   49.875438008953601        58.884607583447099        0.0000000000000000                1
   49.938673306512499        59.114731273011103        0.0000000000000000                1
   50.001908604071502        59.345243201597498        0.0000000000000000                1
   50.065143901630400        59.576080805968800        0.0000000000000000                1
   50.128379199189297        59.807196424694297        0.0000000000000000                1
   50.191614496748201        60.038552794574102        0.0000000000000000                1
   50.254849794307098        60.270120151804001        0.0000000000000000                1
   50.318085091866003        60.501874291790102        0.0000000000000000                1
   50.381320389424999        60.733795227224498        0.0000000000000000                1
   50.429793464344300        60.870914766705098        0.0000000000000000                1
   50.497966489738701        60.999723980916201        0.0000000000000000                1
   50.584399874725797        61.117491068857298        0.0000000000000000                1
   50.687268429470898        61.221717090585798        0.0000000000000000                1
   50.804399907214702        61.310189524623397        0.0000000000000000                1
   50.933320875006103        61.381029673840402        0.0000000000000000                1
   51.071308944500203        61.432732905505098        0.0000000000000000                1
   51.215450259878502        61.464200869007797        0.0000000000000000                1
   51.362701028934701        61.474765007937400        0.0000000000000000                1
   51.452701028934698        61.474765007937400        0.0000000000000000                1
   51.542701028934701        61.474765007937400        0.0000000000000000                1
   45.708088398284502        59.383713917213598        0.0000000000000000                1
   45.771323695843400        59.616768558260603        0.0000000000000000                1
   45.834558993402403        59.850002198393703        0.0000000000000000                1
   45.897794290961301        60.083389758702502        0.0000000000000000                1
   45.961029588520198        60.316911343949997        0.0000000000000000                1
   46.024264886079102        60.550550875962898        0.0000000000000000                1
   46.087500183637999        60.784295154588399        0.0000000000000000                1
   46.135973258557399        60.922465354003499        0.0000000000000000                1
   46.204146283951701        61.052244248430199        0.0000000000000000                1
   46.290579668938797        61.170883940699802        0.0000000000000000                1
   46.393448223683997        61.275871601124500        0.0000000000000000                1
   46.510579701427801        61.364983013580698        0.0000000000000000                1
   46.639500669219203        61.436329959494500        0.0000000000000000                1
   46.777488738713203        61.488400432955999        0.0000000000000000                1
   46.921630054091501        61.520090835334798        0.0000000000000000                1
   47.068880823147701        61.530729469128303        0.0000000000000000                1
   47.158880823147697        61.530729469128303        0.0000000000000000                1
   47.248880823147701        61.530729469128303        0.0000000000000000                1
   47.396131592203901        61.520090835334798        0.0000000000000000                1
   47.540272907582199        61.488400432955999        0.0000000000000000                1
   47.678260977076299        61.436329959494500        0.0000000000000000                1
   47.807181944867700        61.364983013580698        0.0000000000000000                1
   47.924313422611498        61.275871601124500        0.0000000000000000                1
   48.027181977356598        61.170883940699802        0.0000000000000000                1
   48.113615362343701        61.052244248430199        0.0000000000000000                1
   48.181788387738102        60.922465354003499        0.0000000000000000                1
   48.230261462657403        60.784295154588399        0.0000000000000000                1
   48.293496760216300        60.550550875962898        0.0000000000000000                1
   48.356732057775297        60.316911343949997        0.0000000000000000                1
   48.419967355334201        60.083389758702502        0.0000000000000000                1
   48.483202652893098        59.850002198393703        0.0000000000000000                1
   48.546437950452002        59.616768558260603        0.0000000000000000                1
   48.609673248010900        59.383713917213598        0.0000000000000000                1
   48.672908545569797        59.150870594297402        0.0000000000000000                1
   48.736143843128801        58.918281368905198        0.0000000000000000                1
   48.799379140687698        58.686004774814400        0.0000000000000000                1
   48.862614438246602        58.454124350064603        0.0000000000000000                1
   48.925849735805500        58.222766120095599        0.0000000000000000                1
   48.989085033364397        57.992135332748802        0.0000000000000000                1
   49.052320330923401        57.762606291829499        0.0000000000000000                1
   49.115555628482298        57.535001892859100        0.0000000000000000                1
   49.178790926041202        57.311992173609397        0.0000000000000000                1
   49.263457592707901        57.311992173609397        0.0000000000000000                1
   49.348124259374501        57.311992173609397        0.0000000000000000                1