 variables = x, y, z, active
 zone f = fepoint, et = brick, n =         4144 , e =         3066
   34.277420205786903        57.265270530871703        0.0000000000000000                1
   34.367420205786900        57.265270530871703        0.0000000000000000                1
   34.514670974843099        57.265181869463397        0.0000000000000000                1
   34.658812290221398        57.264916911556597        0.0000000000000000                1
   34.796800359715398        57.264478752134700        0.0000000000000000                1
   34.925721327506800        57.263872602814899        0.0000000000000000                1
   35.042852805250703        57.263105871256300        0.0000000000000000                1
   35.145721359995797        57.262188270741703        0.0000000000000000                1
   35.232154744982900        57.261131957189697        0.0000000000000000                1
   35.300327770377301        57.259951688292297        0.0000000000000000                1
   35.348800845296601        57.258664995235797        0.0000000000000000                1
   35.412036142855499        57.256411930539699        0.0000000000000000                1
   35.475271440414403        57.254054119231000        0.0000000000000000                1
   35.538506737973300        57.251578361156803        0.0000000000000000                1
   35.601742035532297        57.248968578144002        0.0000000000000000                1
   35.664977333091201        57.246204874955502        0.0000000000000000                1
   35.728212630650098        57.243262172680900        0.0000000000000000                1
   35.791447928209003        57.240108152275504        0.0000000000000000                1
   35.854683225767900        57.236700034346001        0.0000000000000000                1
   35.917918523326897        57.232979285115299        0.0000000000000000                1
   35.981153820885801        57.228862366543403        0.0000000000000000                1
   36.044389118444698        57.224223253190900        0.0000000000000000                1
   36.107624416003603        57.218856697215998        0.0000000000000000                1
   36.170859713562500        57.212388394813701        0.0000000000000000                1
   36.234095011121397        57.203995450462500        0.0000000000000000                1
   36.297330308680401        57.191007826390603        0.0000000000000000                1
   36.381996975347001        57.191007826390603        0.0000000000000000                1
   36.466663642013700        57.191007826390603        0.0000000000000000                1
   36.551330308680399        57.191007826390603        0.0000000000000000                1
   36.614565606239303        57.203995450462500        0.0000000000000000                1
   36.677800903798200        57.212388394813701        0.0000000000000000                1
   36.741036201357097        57.218856697215998        0.0000000000000000                1
   36.804271498916002        57.224223253190900        0.0000000000000000                1
   36.867506796474899        57.228862366543403        0.0000000000000000                1
   36.930742094033903        57.232979285115299        0.0000000000000000                1
   36.993977391592800        57.236700034346001        0.0000000000000000                1
   37.057212689151697        57.240108152275504        0.0000000000000000                1
   37.120447986710602        57.243262172680900        0.0000000000000000                1
   37.183683284269499        57.246204874955502        0.0000000000000000                1
   37.246918581828503        57.248968578144002        0.0000000000000000                1
   37.310153879387400        57.251578361156803        0.0000000000000000                1
   37.373389176946297        57.254054119231000        0.0000000000000000                1
   37.436624474505201        57.256411930539699        0.0000000000000000                1
   37.499859772064099        57.258664995235797        0.0000000000000000                1
   37.548332846983499        57.259951688292297        0.0000000000000000                1
   37.616505872377800        57.261131957189697        0.0000000000000000                1
   37.702939257364903        57.262188270741703        0.0000000000000000                1
   37.805807812110103        57.263105871256300        0.0000000000000000                1
   37.922939289853900        57.263872602814899        0.0000000000000000                1
   38.051860257645302        57.264478752134700        0.0000000000000000                1
   38.189848327139401        57.264916911556597        0.0000000000000000                1
   38.333989642517700        57.265181869463397        0.0000000000000000                1
   38.481240411573800        57.265270530871703        0.0000000000000000                1
   38.571240411573797        57.265270530871703        0.0000000000000000                1
   38.661240411573800        57.265270530871703        0.0000000000000000                1
   38.808491180630000        57.265181869463397        0.0000000000000000                1
   38.952632496008299        57.264916911556597        0.0000000000000000                1
   39.090620565502398        57.264478752134700        0.0000000000000000                1
   39.219541533293800        57.263872602814899        0.0000000000000000                1
   39.336673011037597        57.263105871256300        0.0000000000000000                1
   39.439541565782697        57.262188270741703        0.0000000000000000                1
   39.525974950769800        57.261131957189697        0.0000000000000000                1
   39.594147976164201        57.259951688292297        0.0000000000000000                1
   39.642621051083502        57.258664995235797        0.0000000000000000                1
   39.705856348642399        57.256411930539699        0.0000000000000000                1
   39.769091646201403        57.254054119231000        0.0000000000000000                1
   39.832326943760300        57.251578361156803        0.0000000000000000                1
   39.895562241319197        57.248968578144002        0.0000000000000000                1
   39.958797538878102        57.246204874955502        0.0000000000000000                1
   40.022032836436999        57.243262172680900        0.0000000000000000                1
   40.085268133996003        57.240108152275504        0.0000000000000000                1
   40.148503431554900        57.236700034346001        0.0000000000000000                1
   34.277420205786903        57.321234992062600        0.0000000000000000                1
   34.367420205786900        57.321234992062600        0.0000000000000000                1
   34.514670974843099        57.321071835790498        0.0000000000000000                1
   34.658812290221398        57.320584439007398        0.0000000000000000                1
   34.796800359715398        57.319779037788798        0.0000000000000000                1
   34.925721327506800        57.318666091772201        0.0000000000000000                1
   35.042852805250703        57.317260381795101        0.0000000000000000                1
   35.145721359995797        57.315581142584200        0.0000000000000000                1
   35.232154744982900        57.313652224703702        0.0000000000000000                1
   35.300327770377301        57.311502275590698        0.0000000000000000                1
   35.348800845296601        57.309164922599599        0.0000000000000000                1
   35.412036142855499        57.305088514712402        0.0000000000000000                1
   35.475271440414403        57.300845311376897        0.0000000000000000                1
   35.538506737973300        57.296415325285203        0.0000000000000000                1
   35.601742035532297        57.291774351843401        0.0000000000000000                1
   35.664977333091201        57.286892627247298        0.0000000000000000                1
   35.728212630650098        57.281732888297000        0.0000000000000000                1
   35.791447928209003        57.276247473561803        0.0000000000000000                1
   35.854683225767900        57.270373819804099        0.0000000000000000                1
   35.917918523326897        57.264027123297602        0.0000000000000000                1
   35.981153820885801        57.257087645838403        0.0000000000000000                1
   36.044389118444698        57.249377000666399        0.0000000000000000                1
   36.107624416003603        57.240609017071499        0.0000000000000000                1
   36.170859713562500        57.230271669624003        0.0000000000000000                1
   36.234095011121397        57.217268346273997        0.0000000000000000                1
   36.297330308680401        57.198193680695397        0.0000000000000000                1
   36.381996975347001        57.198193680695397        0.0000000000000000                1
   36.466663642013700        57.198193680695397        0.0000000000000000                1
   36.551330308680399        57.198193680695397        0.0000000000000000                1
   36.614565606239303        57.217268346273997        0.0000000000000000                1
   36.677800903798200        57.230271669624003        0.0000000000000000                1
   36.741036201357097        57.240609017071499        0.0000000000000000                1
   36.804271498916002        57.249377000666399        0.0000000000000000                1
   36.867506796474899        57.257087645838403        0.0000000000000000                1
   36.930742094033903        57.264027123297602        0.0000000000000000                1
   36.993977391592800        57.270373819804099        0.0000000000000000                1
   37.057212689151697        57.276247473561803        0.0000000000000000                1
   37.120447986710602        57.281732888297000        0.0000000000000000                1
   37.183683284269499        57.286892627247298        0.0000000000000000                1
   37.246918581828503        57.291774351843401        0.0000000000000000                1
   37.310153879387400        57.296415325285203        0.0000000000000000                1
   37.373389176946297        57.300845311376897        0.0000000000000000                1
   37.436624474505201        57.305088514712402        0.0000000000000000                1
   37.499859772064099        57.309164922599599        0.0000000000000000                1
   37.548332846983499        57.311502275590698        0.0000000000000000                1
   37.616505872377800        57.313652224703702        0.0000000000000000                1
   37.702939257364903        57.315581142584200        0.0000000000000000                1
   37.805807812110103        57.317260381795101        0.0000000000000000                1
   37.922939289853900        57.318666091772201        0.0000000000000000                1
   38.051860257645302        57.319779037788798        0.0000000000000000                1
   38.189848327139401        57.320584439007398        0.0000000000000000                1
   38.333989642517700        57.321071835790498        0.0000000000000000                1
   38.481240411573800        57.321234992062600        0.0000000000000000                1
   38.571240411573797        57.321234992062600        0.0000000000000000                1
   38.661240411573800        57.321234992062600        0.0000000000000000                1
   38.808491180630000        57.321071835790498        0.0000000000000000                1
   38.952632496008299        57.320584439007398        0.0000000000000000                1
   39.090620565502398        57.319779037788798        0.0000000000000000                1
   39.219541533293800        57.318666091772201        0.0000000000000000                1
   39.336673011037597        57.317260381795101        0.0000000000000000                1
   39.439541565782697        57.315581142584200        0.0000000000000000                1
   39.525974950769800        57.313652224703702        0.0000000000000000                1
   39.594147976164201        57.311502275590698        0.0000000000000000                1
   39.642621051083502        57.309164922599599        0.0000000000000000                1
   39.705856348642399        57.305088514712402        0.0000000000000000                1
   39.769091646201403        57.300845311376897        0.0000000000000000                1
   39.832326943760300        57.296415325285203        0.0000000000000000                1
   39.895562241319197        57.291774351843401        0.0000000000000000                1
   39.958797538878102        57.286892627247298        0.0000000000000000                1
   40.022032836436999        57.281732888297000        0.0000000000000000                1
   40.085268133996003        57.276247473561803        0.0000000000000000                1
   40.148503431554900        57.270373819804099        0.0000000000000000                1
   34.277420205786903        57.401170577698601        0.0000000000000000                1
   34.367420205786900        57.401170577698601        0.0000000000000000                1
   34.514670974843099        57.400883298284597        0.0000000000000000                1
   34.658812290221398        57.400025438636902        0.0000000000000000                1
   34.796800359715398        57.398608951323702        0.0000000000000000                1
   34.925721327506800        57.396653812373799        0.0000000000000000                1
   35.042852805250703        57.394188100543701        0.0000000000000000                1
   35.145721359995797        57.391248100502303        0.0000000000000000                1
   35.232154744982900        57.387878419586599        0.0000000000000000                1
   35.300327770377301        57.384132100982903        0.0000000000000000                1
   35.348800845296601        57.380070705856603        0.0000000000000000                1
   35.412036142855499        57.373016576564403        0.0000000000000000                1
   35.475271440414403        57.365713819275904        0.0000000000000000                1
   35.538506737973300        57.358134201842901        0.0000000000000000                1
   35.601742035532297        57.350243736438898        0.0000000000000000                1
   35.664977333091201        57.342000895243103        0.0000000000000000                1
   35.728212630650098        57.333354047822603        0.0000000000000000                1
   35.791447928209003        57.324237660001302        0.0000000000000000                1
   35.854683225767900        57.314566435793900        0.0000000000000000                1
   35.917918523326897        57.304225857101699        0.0000000000000000                1
   35.981153820885801        57.293055986471103        0.0000000000000000                1
   36.044389118444698        57.280821565764299        0.0000000000000000                1
   36.107624416003603        57.267150934304603        0.0000000000000000                1
   36.170859713562500        57.251391836167599        0.0000000000000000                1
   36.234095011121397        57.232183775165602        0.0000000000000000                1
   36.297330308680401        57.205483788017297        0.0000000000000000                1
   36.381996975347001        57.205483788017297        0.0000000000000000                1
   36.466663642013700        57.205483788017297        0.0000000000000000                1
   36.551330308680399        57.205483788017297        0.0000000000000000                1
   36.614565606239303        57.232183775165602        0.0000000000000000                1
   36.677800903798200        57.251391836167599        0.0000000000000000                1
   36.741036201357097        57.267150934304603        0.0000000000000000                1
   36.804271498916002        57.280821565764299        0.0000000000000000                1
   36.867506796474899        57.293055986471103        0.0000000000000000                1
   36.930742094033903        57.304225857101699        0.0000000000000000                1
   36.993977391592800        57.314566435793900        0.0000000000000000                1
   37.057212689151697        57.324237660001302        0.0000000000000000                1
   37.120447986710602        57.333354047822603        0.0000000000000000                1
   37.183683284269499        57.342000895243103        0.0000000000000000                1
   37.246918581828503        57.350243736438898        0.0000000000000000                1
   37.310153879387400        57.358134201842901        0.0000000000000000                1
   37.373389176946297        57.365713819275904        0.0000000000000000                1
   37.436624474505201        57.373016576564403        0.0000000000000000                1
   37.499859772064099        57.380070705856603        0.0000000000000000                1
   37.548332846983499        57.384132100982903        0.0000000000000000                1
   37.616505872377800        57.387878419586599        0.0000000000000000                1
   37.702939257364903        57.391248100502303        0.0000000000000000                1
   37.805807812110103        57.394188100543701        0.0000000000000000                1
   37.922939289853900        57.396653812373799        0.0000000000000000                1
   38.051860257645302        57.398608951323702        0.0000000000000000                1
   38.189848327139401        57.400025438636902        0.0000000000000000                1
   38.333989642517700        57.400883298284597        0.0000000000000000                1
   38.481240411573800        57.401170577698601        0.0000000000000000                1
   38.571240411573797        57.401170577698601        0.0000000000000000                1
   38.661240411573800        57.401170577698601        0.0000000000000000                1
   38.808491180630000        57.400883298284597        0.0000000000000000                1
   38.952632496008299        57.400025438636902        0.0000000000000000                1
   39.090620565502398        57.398608951323702        0.0000000000000000                1
   39.219541533293800        57.396653812373799        0.0000000000000000                1
   39.336673011037597        57.394188100543701        0.0000000000000000                1
   39.439541565782697        57.391248100502303        0.0000000000000000                1
   39.525974950769800        57.387878419586599        0.0000000000000000                1
   39.594147976164201        57.384132100982903        0.0000000000000000                1
   39.642621051083502        57.380070705856603        0.0000000000000000                1
   39.705856348642399        57.373016576564403        0.0000000000000000                1
   39.769091646201403        57.365713819275904        0.0000000000000000                1
   39.832326943760300        57.358134201842901        0.0000000000000000                1
   39.895562241319197        57.350243736438898        0.0000000000000000                1
   39.958797538878102        57.342000895243103        0.0000000000000000                1
   40.022032836436999        57.333354047822603        0.0000000000000000                1
   40.085268133996003        57.324237660001302        0.0000000000000000                1
   40.148503431554900        57.314566435793900        0.0000000000000000                1
   34.277420205786903        57.515344782452502        0.0000000000000000                1
   34.367420205786900        57.515344782452502        0.0000000000000000                1
   34.514670974843099        57.514854910079400        0.0000000000000000                1
   34.658812290221398        57.513392651285301        0.0000000000000000                1
   34.796800359715398        57.510980075530497        0.0000000000000000                1
   34.925721327506800        57.507653945425503        0.0000000000000000                1
   35.042852805250703        57.503465681542600        0.0000000000000000                1
   35.145721359995797        57.498481300796598        0.0000000000000000                1
   35.232154744982900        57.492781312652198        0.0000000000000000                1
   35.300327770377301        57.486460547911697        0.0000000000000000                1
   35.348800845296601        57.479627880722497        0.0000000000000000                1
   35.412036142855499        57.467810031474599        0.0000000000000000                1
   35.475271440414403        57.455643635637898        0.0000000000000000                1
   35.538506737973300        57.443091330354903        0.0000000000000000                1
   35.601742035532297        57.430108405139499        0.0000000000000000                1
   35.664977333091201        57.416640584840898        0.0000000000000000                1
   35.728212630650098        57.402620867222801        0.0000000000000000                1
   35.791447928209003        57.387964866615398        0.0000000000000000                1
   35.854683225767900        57.372563696317101        0.0000000000000000                1
   35.917918523326897        57.356272579001299        0.0000000000000000                1
   35.981153820885801        57.338891548073398        0.0000000000000000                1
   36.044389118444698        57.320130248303798        0.0000000000000000                1
   36.107624416003603        57.299537060248298        0.0000000000000000                1
   36.170859713562500        57.276334775285697        0.0000000000000000                1
   36.234095011121397        57.248945002118496        0.0000000000000000                1
   36.297330308680401        57.212879660868403        0.0000000000000000                1
   36.381996975347001        57.212879660868403        0.0000000000000000                1
   36.466663642013700        57.212879660868403        0.0000000000000000                1
   36.551330308680399        57.212879660868403        0.0000000000000000                1
   36.614565606239303        57.248945002118496        0.0000000000000000                1
   36.677800903798200        57.276334775285697        0.0000000000000000                1
   36.741036201357097        57.299537060248298        0.0000000000000000                1
   36.804271498916002        57.320130248303798        0.0000000000000000                1
   36.867506796474899        57.338891548073398        0.0000000000000000                1
   36.930742094033903        57.356272579001299        0.0000000000000000                1
   36.993977391592800        57.372563696317101        0.0000000000000000                1
   37.057212689151697        57.387964866615398        0.0000000000000000                1
   37.120447986710602        57.402620867222801        0.0000000000000000                1
   37.183683284269499        57.416640584840898        0.0000000000000000                1
   37.246918581828503        57.430108405139499        0.0000000000000000                1
   37.310153879387400        57.443091330354903        0.0000000000000000                1
   37.373389176946297        57.455643635637898        0.0000000000000000                1
   37.436624474505201        57.467810031474599        0.0000000000000000                1
   37.499859772064099        57.479627880722497        0.0000000000000000                1
   37.548332846983499        57.486460547911697        0.0000000000000000                1
   37.616505872377800        57.492781312652198        0.0000000000000000                1
   37.702939257364903        57.498481300796598        0.0000000000000000                1
   37.805807812110103        57.503465681542600        0.0000000000000000                1
   37.922939289853900        57.507653945425503        0.0000000000000000                1
   38.051860257645302        57.510980075530497        0.0000000000000000                1
   38.189848327139401        57.513392651285301        0.0000000000000000                1
   38.333989642517700        57.514854910079400        0.0000000000000000                1
   38.481240411573800        57.515344782452502        0.0000000000000000                1
   38.571240411573797        57.515344782452502        0.0000000000000000                1
   38.661240411573800        57.515344782452502        0.0000000000000000                1
   38.808491180630000        57.514854910079400        0.0000000000000000                1
   38.952632496008299        57.513392651285301        0.0000000000000000                1
   39.090620565502398        57.510980075530497        0.0000000000000000                1
   39.219541533293800        57.507653945425503        0.0000000000000000                1
   39.336673011037597        57.503465681542600        0.0000000000000000                1
   39.439541565782697        57.498481300796598        0.0000000000000000                1
   39.525974950769800        57.492781312652198        0.0000000000000000                1
   39.594147976164201        57.486460547911697        0.0000000000000000                1
   39.642621051083502        57.479627880722497        0.0000000000000000                1
   39.705856348642399        57.467810031474599        0.0000000000000000                1
   39.769091646201403        57.455643635637898        0.0000000000000000                1
   39.832326943760300        57.443091330354903        0.0000000000000000                1
   39.895562241319197        57.430108405139499        0.0000000000000000                1
   39.958797538878102        57.416640584840898        0.0000000000000000                1
   40.022032836436999        57.402620867222801        0.0000000000000000                1
   40.085268133996003        57.387964866615398        0.0000000000000000                1
   40.148503431554900        57.372563696317101        0.0000000000000000                1
   34.277420205786903        57.678422952550100        0.0000000000000000                1
   34.367420205786900        57.678422952550100        0.0000000000000000                1
   34.514670974843099        57.677607576039499        0.0000000000000000                1
   34.658812290221398        57.675174665152397        0.0000000000000000                1
   34.796800359715398        57.671163805148900        0.0000000000000000                1
   34.925721327506800        57.665640734146301        0.0000000000000000                1
   35.042852805250703        57.658696980523601        0.0000000000000000                1
   35.145721359995797        57.650449340238701        0.0000000000000000                1
   35.232154744982900        57.641039174865099        0.0000000000000000                1
   35.300327770377301        57.630631499642703        0.0000000000000000                1
   35.348800845296601        57.619413813717003        0.0000000000000000                1
   35.412036142855499        57.600094080935698        0.0000000000000000                1
   35.475271440414403        57.580316949898503        0.0000000000000000                1
   35.538506737973300        57.560036324942899        0.0000000000000000                1
   35.601742035532297        57.539197381375303        0.0000000000000000                1
   35.664977333091201        57.517734004501399        0.0000000000000000                1
   35.728212630650098        57.495565162041203        0.0000000000000000                1
   35.791447928209003        57.472589602715203        0.0000000000000000                1
   35.854683225767900        57.448677819748703        0.0000000000000000                1
   35.917918523326897        57.423659309978703        0.0000000000000000                1
   35.981153820885801        57.397301212529698        0.0000000000000000                1
   36.044389118444698        57.369269821968700        0.0000000000000000                1
   36.107624416003603        57.339054218878097        0.0000000000000000                1
   36.170859713562500        57.305792412874297        0.0000000000000000                1
   36.234095011121397        57.267780446342698        0.0000000000000000                1
   36.297330308680401        57.220382833704498        0.0000000000000000                1
   36.381996975347001        57.220382833704498        0.0000000000000000                1
   36.466663642013700        57.220382833704498        0.0000000000000000                1
   36.551330308680399        57.220382833704498        0.0000000000000000                1
   36.614565606239303        57.267780446342698        0.0000000000000000                1
   36.677800903798200        57.305792412874297        0.0000000000000000                1
   36.741036201357097        57.339054218878097        0.0000000000000000                1
   36.804271498916002        57.369269821968700        0.0000000000000000                1
   36.867506796474899        57.397301212529698        0.0000000000000000                1
   36.930742094033903        57.423659309978703        0.0000000000000000                1
   36.993977391592800        57.448677819748703        0.0000000000000000                1
   37.057212689151697        57.472589602715203        0.0000000000000000                1
   37.120447986710602        57.495565162041203        0.0000000000000000                1
   37.183683284269499        57.517734004501399        0.0000000000000000                1
   37.246918581828503        57.539197381375303        0.0000000000000000                1