 variables = x, y, z, active
 zone f = fepoint, et = brick, n =         4144 , e =         3066
   34.277420205786903        61.117577047449899        0.0000000000000000                1
   34.367420205786900        61.117577047449899        0.0000000000000000                1
   34.514670974843099        61.107665128758697        0.0000000000000000                1
   34.658812290221398        61.078142679360099        0.0000000000000000                1
   34.796800359715398        61.029644906480399        0.0000000000000000                1
   34.925721327506800        60.963214882249197        0.0000000000000000                1
   35.042852805250703        60.880280491857299        0.0000000000000000                1
   35.145721359995797        60.782622871202797        0.0000000000000000                1
   35.232154744982900        60.672337030754903        0.0000000000000000                1
   35.300327770377301        60.551785542653001        0.0000000000000000                1
   35.348800845296601        60.423546336107201        0.0000000000000000                1
   35.412036142855499        60.206868725566800        0.0000000000000000                1
   35.475271440414403        59.990648513282501        0.0000000000000000                1
   35.538506737973300        59.774931794916498        0.0000000000000000                1
   35.601742035532297        59.559773395162402        0.0000000000000000                1
   35.664977333091201        59.345239428714699        0.0000000000000000                1
   35.728212630650098        59.131410927853302        0.0000000000000000                1
   35.791447928209003        58.918389143857603        0.0000000000000000                1
   35.854683225767900        58.706303583502603        0.0000000000000000                1
   35.917918523326897        58.495324749950903        0.0000000000000000                1
   35.981153820885801        58.285685504078302        0.0000000000000000                1
   36.044389118444698        58.077719551317699        0.0000000000000000                1
   36.107624416003603        57.871937811086703        0.0000000000000000                1
   36.170859713562500        57.669202273768903        0.0000000000000000                1
   36.234095011121397        57.471216896978802        0.0000000000000000                1
   36.297330308680401        57.282617166295402        0.0000000000000000                1
   36.381996975347001        57.282617166295402        0.0000000000000000                1
   36.466663642013700        57.282617166295402        0.0000000000000000                1
   36.551330308680399        57.282617166295402        0.0000000000000000                1
   36.614565606239303        57.471216896978802        0.0000000000000000                1
   36.677800903798200        57.669202273768903        0.0000000000000000                1
   36.741036201357097        57.871937811086703        0.0000000000000000                1
   36.804271498916002        58.077719551317699        0.0000000000000000                1
   36.867506796474899        58.285685504078302        0.0000000000000000                1
   36.930742094033903        58.495324749950903        0.0000000000000000                1
   36.993977391592800        58.706303583502603        0.0000000000000000                1
   37.057212689151697        58.918389143857603        0.0000000000000000                1
   37.120447986710602        59.131410927853302        0.0000000000000000                1
   37.183683284269499        59.345239428714699        0.0000000000000000                1
   37.246918581828503        59.559773395162402        0.0000000000000000                1
   37.310153879387400        59.774931794916498        0.0000000000000000                1
   37.373389176946297        59.990648513282501        0.0000000000000000                1
   37.436624474505201        60.206868725566800        0.0000000000000000                1
   37.499859772064099        60.423546336107201        0.0000000000000000                1
   37.548332846983499        60.551785542653001        0.0000000000000000                1
   37.616505872377800        60.672337030754903        0.0000000000000000                1
   37.702939257364903        60.782622871202797        0.0000000000000000                1
   37.805807812110103        60.880280491857299        0.0000000000000000                1
   37.922939289853900        60.963214882249197        0.0000000000000000                1
   38.051860257645302        61.029644906480399        0.0000000000000000                1
   38.189848327139401        61.078142679360099        0.0000000000000000                1
   38.333989642517700        61.107665128758697        0.0000000000000000                1
   38.481240411573800        61.117577047449899        0.0000000000000000                1
   38.571240411573797        61.117577047449899        0.0000000000000000                1
   38.661240411573800        61.117577047449899        0.0000000000000000                1
   38.808491180630000        61.107665128758697        0.0000000000000000                1
   38.952632496008299        61.078142679360099        0.0000000000000000                1
   39.090620565502398        61.029644906480399        0.0000000000000000                1
   39.219541533293800        60.963214882249197        0.0000000000000000                1
   39.336673011037597        60.880280491857299        0.0000000000000000                1
   39.439541565782697        60.782622871202797        0.0000000000000000                1
   39.525974950769800        60.672337030754903        0.0000000000000000                1
   39.594147976164201        60.551785542653001        0.0000000000000000                1
   39.642621051083502        60.423546336107201        0.0000000000000000                1
   39.705856348642399        60.206868725566800        0.0000000000000000                1
   39.769091646201403        59.990648513282501        0.0000000000000000                1
   39.832326943760300        59.774931794916498        0.0000000000000000                1
   39.895562241319197        59.559773395162402        0.0000000000000000                1
   39.958797538878102        59.345239428714699        0.0000000000000000                1
   40.022032836436999        59.131410927853302        0.0000000000000000                1
   40.085268133996003        58.918389143857603        0.0000000000000000                1
   40.148503431554900        58.706303583502603        0.0000000000000000                1
   34.277420205786903        61.280655217547498        0.0000000000000000                1
   34.367420205786900        61.280655217547498        0.0000000000000000                1
   34.514670974843099        61.270417794718902        0.0000000000000000                1
   34.658812290221398        61.239924693227202        0.0000000000000000                1
   34.796800359715398        61.189828636098703        0.0000000000000000                1
   34.925721327506800        61.121201670970002        0.0000000000000000                1
   35.042852805250703        61.035511790838200        0.0000000000000000                1
   35.145721359995797        60.934590910644999        0.0000000000000000                1
   35.232154744982900        60.820594892967698        0.0000000000000000                1
   35.300327770377301        60.695956494384099        0.0000000000000000                1
   35.348800845296601        60.563332269101700        0.0000000000000000                1
   35.412036142855499        60.339152775027898        0.0000000000000000                1
   35.475271440414403        60.115321827542999        0.0000000000000000                1
   35.538506737973300        59.891876789504401        0.0000000000000000                1
   35.601742035532297        59.668862371398198        0.0000000000000000                1
   35.664977333091201        59.446332848375199        0.0000000000000000                1
   35.728212630650098        59.224355222671598        0.0000000000000000                1
   35.791447928209003        59.003013879957500        0.0000000000000000                1
   35.854683225767900        58.782417706934098        0.0000000000000000                1
   35.917918523326897        58.562711480928300        0.0000000000000000                1
   35.981153820885801        58.344095168534601        0.0000000000000000                1
   36.044389118444698        58.126859124982602        0.0000000000000000                1
   36.107624416003603        57.911454969716502        0.0000000000000000                1
   36.170859713562500        57.698659911357502        0.0000000000000000                1
   36.234095011121397        57.490052341203103        0.0000000000000000                1
   36.297330308680401        57.290120339131498        0.0000000000000000                1
   36.381996975347001        57.290120339131498        0.0000000000000000                1
   36.466663642013700        57.290120339131498        0.0000000000000000                1
   36.551330308680399        57.290120339131498        0.0000000000000000                1
   36.614565606239303        57.490052341203103        0.0000000000000000                1
   36.677800903798200        57.698659911357502        0.0000000000000000                1
   36.741036201357097        57.911454969716502        0.0000000000000000                1
   36.804271498916002        58.126859124982602        0.0000000000000000                1
   36.867506796474899        58.344095168534601        0.0000000000000000                1
   36.930742094033903        58.562711480928300        0.0000000000000000                1
   36.993977391592800        58.782417706934098        0.0000000000000000                1
   37.057212689151697        59.003013879957500        0.0000000000000000                1
   37.120447986710602        59.224355222671598        0.0000000000000000                1
   37.183683284269499        59.446332848375199        0.0000000000000000                1
   37.246918581828503        59.668862371398198        0.0000000000000000                1
   37.310153879387400        59.891876789504401        0.0000000000000000                1
   37.373389176946297        60.115321827542999        0.0000000000000000                1
   37.436624474505201        60.339152775027898        0.0000000000000000                1
   37.499859772064099        60.563332269101700        0.0000000000000000                1
   37.548332846983499        60.695956494384099        0.0000000000000000                1
   37.616505872377800        60.820594892967698        0.0000000000000000                1
   37.702939257364903        60.934590910644999        0.0000000000000000                1
   37.805807812110103        61.035511790838200        0.0000000000000000                1
   37.922939289853900        61.121201670970002        0.0000000000000000                1
   38.051860257645302        61.189828636098703        0.0000000000000000                1
   38.189848327139401        61.239924693227202        0.0000000000000000                1
   38.333989642517700        61.270417794718902        0.0000000000000000                1
   38.481240411573800        61.280655217547498        0.0000000000000000                1
   38.571240411573797        61.280655217547498        0.0000000000000000                1
   38.661240411573800        61.280655217547498        0.0000000000000000                1
   38.808491180630000        61.270417794718902        0.0000000000000000                1
   38.952632496008299        61.239924693227202        0.0000000000000000                1
   39.090620565502398        61.189828636098703        0.0000000000000000                1
   39.219541533293800        61.121201670970002        0.0000000000000000                1
   39.336673011037597        61.035511790838200        0.0000000000000000                1
   39.439541565782697        60.934590910644999        0.0000000000000000                1
   39.525974950769800        60.820594892967698        0.0000000000000000                1
   39.594147976164201        60.695956494384099        0.0000000000000000                1
   39.642621051083502        60.563332269101700        0.0000000000000000                1
   39.705856348642399        60.339152775027898        0.0000000000000000                1
   39.769091646201403        60.115321827542999        0.0000000000000000                1
   39.832326943760300        59.891876789504401        0.0000000000000000                1
   39.895562241319197        59.668862371398198        0.0000000000000000                1
   39.958797538878102        59.446332848375199        0.0000000000000000                1
   40.022032836436999        59.224355222671598        0.0000000000000000                1
   40.085268133996003        59.003013879957500        0.0000000000000000                1
   40.148503431554900        58.782417706934098        0.0000000000000000                1
   34.277420205786903        61.394829422301399        0.0000000000000000                1
   34.367420205786900        61.394829422301399        0.0000000000000000                1
   34.514670974843099        61.384389406513598        0.0000000000000000                1
   34.658812290221398        61.353291905875700        0.0000000000000000                1
   34.796800359715398        61.302199760305598        0.0000000000000000                1
   34.925721327506800        61.232201804021798        0.0000000000000000                1
   35.042852805250703        61.144789371837199        0.0000000000000000                1
   35.145721359995797        61.041824110939302        0.0000000000000000                1
   35.232154744982900        60.925497786033297        0.0000000000000000                1
   35.300327770377301        60.798284941312900        0.0000000000000000                1
   35.348800845296601        60.662889443967600        0.0000000000000000                1
   35.412036142855499        60.433946229938201        0.0000000000000000                1
   35.475271440414403        60.205251643905001        0.0000000000000000                1
   35.538506737973300        59.976833918016503        0.0000000000000000                1
   35.601742035532297        59.748727040098800        0.0000000000000000                1
   35.664977333091201        59.520972537973002        0.0000000000000000                1
   35.728212630650098        59.293622042071803        0.0000000000000000                1
   35.791447928209003        59.066741086571596        0.0000000000000000                1
   35.854683225767900        58.840414967457399        0.0000000000000000                1
   35.917918523326897        58.614758202827900        0.0000000000000000                1
   35.981153820885801        58.389930730136903        0.0000000000000000                1
   36.044389118444698        58.166167807522100        0.0000000000000000                1
   36.107624416003603        57.943841095660197        0.0000000000000000                1
   36.170859713562500        57.723602850475601        0.0000000000000000                1
   36.234095011121397        57.506813568155998        0.0000000000000000                1
   36.297330308680401        57.297516211982703        0.0000000000000000                1
   36.381996975347001        57.297516211982703        0.0000000000000000                1
   36.466663642013700        57.297516211982703        0.0000000000000000                1
   36.551330308680399        57.297516211982703        0.0000000000000000                1
   36.614565606239303        57.506813568155998        0.0000000000000000                1
   36.677800903798200        57.723602850475601        0.0000000000000000                1
   36.741036201357097        57.943841095660197        0.0000000000000000                1
   36.804271498916002        58.166167807522100        0.0000000000000000                1
   36.867506796474899        58.389930730136903        0.0000000000000000                1
   36.930742094033903        58.614758202827900        0.0000000000000000                1
   36.993977391592800        58.840414967457399        0.0000000000000000                1
   37.057212689151697        59.066741086571596        0.0000000000000000                1
   37.120447986710602        59.293622042071803        0.0000000000000000                1
   37.183683284269499        59.520972537973002        0.0000000000000000                1
   37.246918581828503        59.748727040098800        0.0000000000000000                1
   37.310153879387400        59.976833918016503        0.0000000000000000                1
   37.373389176946297        60.205251643905001        0.0000000000000000                1
   37.436624474505201        60.433946229938201        0.0000000000000000                1
   37.499859772064099        60.662889443967600        0.0000000000000000                1
   37.548332846983499        60.798284941312900        0.0000000000000000                1
   37.616505872377800        60.925497786033297        0.0000000000000000                1
   37.702939257364903        61.041824110939302        0.0000000000000000                1
   37.805807812110103        61.144789371837199        0.0000000000000000                1
   37.922939289853900        61.232201804021798        0.0000000000000000                1
   38.051860257645302        61.302199760305598        0.0000000000000000                1
   38.189848327139401        61.353291905875700        0.0000000000000000                1
   38.333989642517700        61.384389406513598        0.0000000000000000                1
   38.481240411573800        61.394829422301399        0.0000000000000000                1
   38.571240411573797        61.394829422301399        0.0000000000000000                1
   38.661240411573800        61.394829422301399        0.0000000000000000                1
   38.808491180630000        61.384389406513598        0.0000000000000000                1
   38.952632496008299        61.353291905875700        0.0000000000000000                1
   39.090620565502398        61.302199760305598        0.0000000000000000                1
   39.219541533293800        61.232201804021798        0.0000000000000000                1
   39.336673011037597        61.144789371837199        0.0000000000000000                1
   39.439541565782697        61.041824110939302        0.0000000000000000                1
   39.525974950769800        60.925497786033297        0.0000000000000000                1
   39.594147976164201        60.798284941312900        0.0000000000000000                1
   39.642621051083502        60.662889443967600        0.0000000000000000                1
   39.705856348642399        60.433946229938201        0.0000000000000000                1
   39.769091646201403        60.205251643905001        0.0000000000000000                1
   39.832326943760300        59.976833918016503        0.0000000000000000                1
   39.895562241319197        59.748727040098800        0.0000000000000000                1
   39.958797538878102        59.520972537973002        0.0000000000000000                1
   40.022032836436999        59.293622042071803        0.0000000000000000                1
   40.085268133996003        59.066741086571596        0.0000000000000000                1
   40.148503431554900        58.840414967457399        0.0000000000000000                1
   34.277420205786903        61.474765007937400        0.0000000000000000                1
   34.367420205786900        61.474765007937400        0.0000000000000000                1
   34.514670974843099        61.464200869007797        0.0000000000000000                1
   34.658812290221398        61.432732905505098        0.0000000000000000                1
   34.796800359715398        61.381029673840402        0.0000000000000000                1
   34.925721327506800        61.310189524623297        0.0000000000000000                1
   35.042852805250703        61.221717090585798        0.0000000000000000                1
   35.145721359995797        61.117491068857298        0.0000000000000000                1
   35.232154744982900        60.999723980916201        0.0000000000000000                1
   35.300327770377301        60.870914766705098        0.0000000000000000                1
   35.348800845296601        60.733795227224498        0.0000000000000000                1
   35.412036142855499        60.501874291790102        0.0000000000000000                1
   35.475271440414403        60.270120151804001        0.0000000000000000                1
   35.538506737973300        60.038552794574102        0.0000000000000000                1
   35.601742035532297        59.807196424694297        0.0000000000000000                1
   35.664977333091201        59.576080805968800        0.0000000000000000                1
   35.728212630650098        59.345243201597498        0.0000000000000000                1
   35.791447928209003        59.114731273011103        0.0000000000000000                1
   35.854683225767900        58.884607583447099        0.0000000000000000                1
   35.917918523326897        58.654956936632097        0.0000000000000000                1
   35.981153820885801        58.425899070769603        0.0000000000000000                1
   36.044389118444698        58.197612372620000        0.0000000000000000                1
   36.107624416003603        57.970383012893301        0.0000000000000000                1
   36.170859713562500        57.744723017019098        0.0000000000000000                1
   36.234095011121397        57.521728997047603        0.0000000000000000                1
   36.297330308680401        57.304806319304603        0.0000000000000000                1
   36.381996975347001        57.304806319304603        0.0000000000000000                1
   36.466663642013700        57.304806319304603        0.0000000000000000                1
   36.551330308680399        57.304806319304603        0.0000000000000000                1
   36.614565606239303        57.521728997047603        0.0000000000000000                1
   36.677800903798200        57.744723017019098        0.0000000000000000                1
   36.741036201357097        57.970383012893301        0.0000000000000000                1
   36.804271498916002        58.197612372620000        0.0000000000000000                1
   36.867506796474899        58.425899070769603        0.0000000000000000                1
   36.930742094033903        58.654956936632097        0.0000000000000000                1
   36.993977391592800        58.884607583447099        0.0000000000000000                1
   37.057212689151697        59.114731273011103        0.0000000000000000                1
   37.120447986710602        59.345243201597498        0.0000000000000000                1
   37.183683284269499        59.576080805968800        0.0000000000000000                1
   37.246918581828503        59.807196424694297        0.0000000000000000                1
   37.310153879387400        60.038552794574102        0.0000000000000000                1
   37.373389176946297        60.270120151804001        0.0000000000000000                1
   37.436624474505201        60.501874291790102        0.0000000000000000                1
   37.499859772064099        60.733795227224498        0.0000000000000000                1
   37.548332846983499        60.870914766705098        0.0000000000000000                1
   37.616505872377800        60.999723980916201        0.0000000000000000                1
   37.702939257364903        61.117491068857298        0.0000000000000000                1
   37.805807812110103        61.221717090585798        0.0000000000000000                1
   37.922939289853900        61.310189524623397        0.0000000000000000                1
   38.051860257645302        61.381029673840402        0.0000000000000000                1
   38.189848327139401        61.432732905505098        0.0000000000000000                1
   38.333989642517700        61.464200869007797        0.0000000000000000                1
   38.481240411573800        61.474765007937400        0.0000000000000000                1
   38.571240411573797        61.474765007937400        0.0000000000000000                1
   38.661240411573800        61.474765007937400        0.0000000000000000                1
   38.808491180630000        61.464200869007797        0.0000000000000000                1
   38.952632496008299        61.432732905505098        0.0000000000000000                1
   39.090620565502398        61.381029673840402        0.0000000000000000                1
   39.219541533293800        61.310189524623297        0.0000000000000000                1
   39.336673011037597        61.221717090585798        0.0000000000000000                1
   39.439541565782697        61.117491068857298        0.0000000000000000                1
   39.525974950769800        60.999723980916201        0.0000000000000000                1
   39.594147976164201        60.870914766705098        0.0000000000000000                1
   39.642621051083502        60.733795227224498        0.0000000000000000                1
   39.705856348642399        60.501874291790102        0.0000000000000000                1
   39.769091646201403        60.270120151804001        0.0000000000000000                1
   39.832326943760300        60.038552794574102        0.0000000000000000                1
   39.895562241319197        59.807196424694297        0.0000000000000000                1
   39.958797538878102        59.576080805968800        0.0000000000000000                1
   40.022032836436999        59.345243201597498        0.0000000000000000                1
   40.085268133996003        59.114731273011103        0.0000000000000000                1
   40.148503431554900        58.884607583447099        0.0000000000000000                1
   34.277420205786903        61.530729469128303        0.0000000000000000                1
   34.367420205786900        61.530729469128303        0.0000000000000000                1
   34.514670974843099        61.520090835334798        0.0000000000000000                1
   34.658812290221398        61.488400432955999        0.0000000000000000                1
   34.796800359715398        61.436329959494500        0.0000000000000000                1
   34.925721327506800        61.364983013580698        0.0000000000000000                1
   35.042852805250703        61.275871601124500        0.0000000000000000                1
   35.145721359995797        61.170883940699802        0.0000000000000000                1
   35.232154744982900        61.052244248430199        0.0000000000000000                1
   35.300327770377301        60.922465354003499        0.0000000000000000                1
   35.348800845296601        60.784295154588399        0.0000000000000000                1
   35.412036142855499        60.550550875962898        0.0000000000000000                1
   35.475271440414403        60.316911343949997        0.0000000000000000                1
   35.538506737973300        60.083389758702502        0.0000000000000000                1
   35.601742035532297        59.850002198393703        0.0000000000000000                1
   35.664977333091201        59.616768558260603        0.0000000000000000                1
   35.728212630650098        59.383713917213598        0.0000000000000000                1
   35.791447928209003        59.150870594297402        0.0000000000000000                1
   35.854683225767900        58.918281368905198        0.0000000000000000                1
   35.917918523326897        58.686004774814400        0.0000000000000000                1
   35.981153820885801        58.454124350064603        0.0000000000000000                1
   36.044389118444698        58.222766120095599        0.0000000000000000                1
   36.107624416003603        57.992135332748802        0.0000000000000000                1
   36.170859713562500        57.762606291829499        0.0000000000000000                1
   36.234095011121397        57.535001892859100        0.0000000000000000                1
   36.297330308680401        57.311992173609397        0.0000000000000000                1
   36.381996975347001        57.311992173609397        0.0000000000000000                1
   36.466663642013700        57.311992173609397        0.0000000000000000                1
   36.551330308680399        57.311992173609397        0.0000000000000000                1
   36.614565606239303        57.535001892859100        0.0000000000000000                1
   36.677800903798200        57.762606291829499        0.0000000000000000                1
   36.741036201357097        57.992135332748802        0.0000000000000000                1
   36.804271498916002        58.222766120095599        0.0000000000000000                1
   36.867506796474899        58.454124350064603        0.0000000000000000                1
   36.930742094033903        58.686004774814400        0.0000000000000000                1
   36.993977391592800        58.918281368905198        0.0000000000000000                1
   37.057212689151697        59.150870594297402        0.0000000000000000                1
   37.120447986710602        59.383713917213598        0.0000000000000000                1
   37.183683284269499        59.616768558260603        0.0000000000000000                1
   37.246918581828503        59.850002198393703        0.0000000000000000                1