 variables = x, y, z, active
 zone f = fepoint, et = brick, n =         4088 , e =         3024
   40.211738729113797        57.623870341448701        0.0000000000000000                1
   40.274974026672702        57.566586994640900        0.0000000000000000                1
   40.338209324231599        57.507491151720203        0.0000000000000000                1
   40.401444621790603        57.446108034077000        0.0000000000000000                1
   40.464679919349500        57.381668352106502        0.0000000000000000                1
   40.527915216908397        57.312732496960898        0.0000000000000000                1
   40.591150514467301        57.235717328787700        0.0000000000000000                1
   40.675817181134001        57.235717328787700        0.0000000000000000                1
   40.760483847800600        57.235717328787700        0.0000000000000000                1
   40.845150514467299        57.235717328787700        0.0000000000000000                1
   40.908385812026197        57.312732496960898        0.0000000000000000                1
   40.971621109585101        57.381668352106502        0.0000000000000000                1
   41.034856407144098        57.446108034077000        0.0000000000000000                1
   41.098091704703002        57.507491151720203        0.0000000000000000                1
   41.161327002261899        57.566586994640900        0.0000000000000000                1
   41.224562299820803        57.623870341448701        0.0000000000000000                1
   41.287797597379701        57.679661440050197        0.0000000000000000                1
   41.351032894938598        57.734189836710797        0.0000000000000000                1
   41.414268192497602        57.787627520989901        0.0000000000000000                1
   41.477503490056499        57.840107789934997        0.0000000000000000                1
   41.540738787615403        57.891736745774899        0.0000000000000000                1
   41.603974085174301        57.942600687908197        0.0000000000000000                1
   41.667209382733198        57.992771073046598        0.0000000000000000                1
   41.730444680292202        58.042307961338103        0.0000000000000000                1
   41.793679977851099        58.091262485310502        0.0000000000000000                1
   41.842153052770399        58.119935345741602        0.0000000000000000                1
   41.910326078164800        58.146697216921098        0.0000000000000000                1
   41.996759463151903        58.171024044277900        0.0000000000000000                1
   42.099628017896997        58.192445513552101        0.0000000000000000                1
   42.216759495640801        58.210551902865497        0.0000000000000000                1
   42.345680463432203        58.224999919557497        0.0000000000000000                1
   42.483668532926302        58.235517513143698        0.0000000000000000                1
   42.627809848304601        58.241907646895100        0.0000000000000000                1
   42.775060617360801        58.244051009019799        0.0000000000000000                1
   42.865060617360797        58.244051009019799        0.0000000000000000                1
   42.955060617360800        58.244051009019799        0.0000000000000000                1
   43.102311386416901        58.241907646895100        0.0000000000000000                1
   43.246452701795299        58.235517513143698        0.0000000000000000                1
   43.384440771289299        58.224999919557497        0.0000000000000000                1
   43.513361739080700        58.210551902865497        0.0000000000000000                1
   43.630493216824497        58.192445513552101        0.0000000000000000                1
   43.733361771569697        58.171024044277900        0.0000000000000000                1
   43.819795156556800        58.146697216921098        0.0000000000000000                1
   43.887968181951102        58.119935345741602        0.0000000000000000                1
   43.936441256870502        58.091262485310502        0.0000000000000000                1
   43.999676554429399        58.042307961338103        0.0000000000000000                1
   44.062911851988297        57.992771073046598        0.0000000000000000                1
   44.126147149547201        57.942600687908197        0.0000000000000000                1
   44.189382447106198        57.891736745774899        0.0000000000000000                1
   44.252617744665102        57.840107789934997        0.0000000000000000                1
   44.315853042223999        57.787627520989901        0.0000000000000000                1
   44.379088339782903        57.734189836710797        0.0000000000000000                1
   44.442323637341801        57.679661440050197        0.0000000000000000                1
   44.505558934900698        57.623870341448701        0.0000000000000000                1
   44.568794232459702        57.566586994640900        0.0000000000000000                1
   44.632029530018599        57.507491151720203        0.0000000000000000                1
   44.695264827577503        57.446108034077000        0.0000000000000000                1
   44.758500125136401        57.381668352106502        0.0000000000000000                1
   44.821735422695298        57.312732496960898        0.0000000000000000                1
   44.884970720254302        57.235717328787700        0.0000000000000000                1
   44.969637386920901        57.235717328787700        0.0000000000000000                1
   45.054304053587600        57.235717328787700        0.0000000000000000                1
   45.138970720254200        57.235717328787700        0.0000000000000000                1
   45.202206017813197        57.312732496960898        0.0000000000000000                1
   45.265441315372101        57.381668352106502        0.0000000000000000                1
   45.328676612930998        57.446108034077000        0.0000000000000000                1
   45.391911910489902        57.507491151720203        0.0000000000000000                1
   45.455147208048800        57.566586994640900        0.0000000000000000                1
   45.518382505607804        57.623870341448701        0.0000000000000000                1
   45.581617803166701        57.679661440050197        0.0000000000000000                1
   45.644853100725598        57.734189836710797        0.0000000000000000                1
   40.211738729113797        57.770127594051999        0.0000000000000000                1
   40.274974026672702        57.687460516076598        0.0000000000000000                1
   40.338209324231599        57.603488684585301        0.0000000000000000                1
   40.401444621790603        57.517898345940097        0.0000000000000000                1
   40.464679919349500        57.430191478966798        0.0000000000000000                1
   40.527915216908397        57.339461702415498        0.0000000000000000                1
   40.591150514467301        57.243551832553102        0.0000000000000000                1
   40.675817181134001        57.243551832553102        0.0000000000000000                1
   40.760483847800600        57.243551832553102        0.0000000000000000                1
   40.845150514467299        57.243551832553102        0.0000000000000000                1
   40.908385812026197        57.339461702415498        0.0000000000000000                1
   40.971621109585101        57.430191478966798        0.0000000000000000                1
   41.034856407144098        57.517898345940097        0.0000000000000000                1
   41.098091704703002        57.603488684585301        0.0000000000000000                1
   41.161327002261899        57.687460516076598        0.0000000000000000                1
   41.224562299820803        57.770127594051999        0.0000000000000000                1
   41.287797597379701        57.851705055192902        0.0000000000000000                1
   41.351032894938598        57.932349229446800        0.0000000000000000                1
   41.414268192497602        58.012178632164499        0.0000000000000000                1
   41.477503490056499        58.091286066516801        0.0000000000000000                1
   41.540738787615403        58.169746082079300        0.0000000000000000                1
   41.603974085174301        58.247619817214698        0.0000000000000000                1
   41.667209382733198        58.324958277002501        0.0000000000000000                1
   41.730444680292202        58.401804627738002        0.0000000000000000                1
   41.793679977851099        58.478195854983802        0.0000000000000000                1
   41.842153052770399        58.523136636208697        0.0000000000000000                1
   41.910326078164800        58.565209816882003        0.0000000000000000                1
   41.996759463151903        58.603559029098200        0.0000000000000000                1
   42.099628017896997        58.637408563602399        0.0000000000000000                1
   42.216759495640801        58.666077292565802        0.0000000000000000                1
   42.345680463432203        58.688990782008702        0.0000000000000000                1
   42.483668532926302        58.705691440556002        0.0000000000000000                1
   42.627809848304601        58.715846566846103        0.0000000000000000                1
   42.775060617360801        58.719254182541803        0.0000000000000000                1
   42.865060617360797        58.719254182541803        0.0000000000000000                1
   42.955060617360800        58.719254182541803        0.0000000000000000                1
   43.102311386416901        58.715846566846103        0.0000000000000000                1
   43.246452701795299        58.705691440556002        0.0000000000000000                1
   43.384440771289299        58.688990782008702        0.0000000000000000                1
   43.513361739080700        58.666077292565802        0.0000000000000000                1
   43.630493216824497        58.637408563602399        0.0000000000000000                1
   43.733361771569697        58.603559029098200        0.0000000000000000                1
   43.819795156556800        58.565209816882003        0.0000000000000000                1
   43.887968181951102        58.523136636208697        0.0000000000000000                1
   43.936441256870502        58.478195854983802        0.0000000000000000                1
   43.999676554429399        58.401804627738002        0.0000000000000000                1
   44.062911851988297        58.324958277002501        0.0000000000000000                1
   44.126147149547201        58.247619817214698        0.0000000000000000                1
   44.189382447106198        58.169746082079300        0.0000000000000000                1
   44.252617744665102        58.091286066516801        0.0000000000000000                1
   44.315853042223999        58.012178632164499        0.0000000000000000                1
   44.379088339782903        57.932349229446800        0.0000000000000000                1
   44.442323637341801        57.851705055192902        0.0000000000000000                1
   44.505558934900698        57.770127594051999        0.0000000000000000                1
   44.568794232459702        57.687460516076598        0.0000000000000000                1
   44.632029530018599        57.603488684585301        0.0000000000000000                1
   44.695264827577503        57.517898345940097        0.0000000000000000                1
   44.758500125136401        57.430191478966798        0.0000000000000000                1
   44.821735422695298        57.339461702415498        0.0000000000000000                1
   44.884970720254302        57.243551832553102        0.0000000000000000                1
   44.969637386920901        57.243551832553102        0.0000000000000000                1
   45.054304053587600        57.243551832553102        0.0000000000000000                1
   45.138970720254200        57.243551832553102        0.0000000000000000                1
   45.202206017813197        57.339461702415498        0.0000000000000000                1
   45.265441315372101        57.430191478966798        0.0000000000000000                1
   45.328676612930998        57.517898345940097        0.0000000000000000                1
   45.391911910489902        57.603488684585301        0.0000000000000000                1
   45.455147208048800        57.687460516076598        0.0000000000000000                1
   45.518382505607804        57.770127594051999        0.0000000000000000                1
   45.581617803166701        57.851705055192902        0.0000000000000000                1
   45.644853100725598        57.932349229446800        0.0000000000000000                1
   40.211738729113797        57.959492029985000        0.0000000000000000                1
   40.274974026672702        57.841493358304000        0.0000000000000000                1
   40.338209324231599        57.723494686647001        0.0000000000000000                1
   40.401444621790603        57.605496014982400        0.0000000000000000                1
   40.464679919349500        57.487497343321600        0.0000000000000000                1
   40.527915216908397        57.369498671660800        0.0000000000000000                1
   40.591150514467301        57.251500000000000        0.0000000000000000                1
   40.675817181134001        57.251500000000000        0.0000000000000000                1
   40.760483847800600        57.251500000000000        0.0000000000000000                1
   40.845150514467299        57.251500000000000        0.0000000000000000                1
   40.908385812026197        57.369498671660800        0.0000000000000000                1
   40.971621109585101        57.487497343321600        0.0000000000000000                1
   41.034856407144098        57.605496014982400        0.0000000000000000                1
   41.098091704703002        57.723494686647001        0.0000000000000000                1
   41.161327002261899        57.841493358304000        0.0000000000000000                1
   41.224562299820803        57.959492029985000        0.0000000000000000                1
   41.287797597379701        58.077490701625599        0.0000000000000000                1
   41.351032894938598        58.195489373303303        0.0000000000000000                1
   41.414268192497602        58.313488044947199        0.0000000000000000                1
   41.477503490056499        58.431486716612000        0.0000000000000000                1
   41.540738787615403        58.549485388268799        0.0000000000000000                1
   41.603974085174301        58.667484059929897        0.0000000000000000                1
   41.667209382733198        58.785482732044301        0.0000000000000000                1
   41.730444680292202        58.903481403251298        0.0000000000000000                1
   41.793679977851099        59.021480074924199        0.0000000000000000                1
   41.842153052770399        59.091208521695997        0.0000000000000000                1
   41.910326078164800        59.156688102810001        0.0000000000000000                1
   41.996759463151903        59.216536105720799        0.0000000000000000                1
   42.099628017896997        59.269488736190603        0.0000000000000000                1
   42.216759495640801        59.314427808200200        0.0000000000000000                1
   42.345680463432203        59.350404355832900        0.0000000000000000                1
   42.483668532926302        59.376658672329299        0.0000000000000000                1
   42.627809848304601        59.392636352562199        0.0000000000000000                1
   42.775060617360801        59.398000000212200        0.0000000000000000                1
   42.865060617360797        59.398000000212200        0.0000000000000000                1
   42.955060617360800        59.398000000212200        0.0000000000000000                1
   43.102311386416901        59.392636352562199        0.0000000000000000                1
   43.246452701795299        59.376658672329299        0.0000000000000000                1
   43.384440771289299        59.350404355832900        0.0000000000000000                1
   43.513361739080700        59.314427808200200        0.0000000000000000                1
   43.630493216824497        59.269488736190603        0.0000000000000000                1
   43.733361771569697        59.216536105720799        0.0000000000000000                1
   43.819795156556800        59.156688102810001        0.0000000000000000                1
   43.887968181951102        59.091208521695997        0.0000000000000000                1
   43.936441256870502        59.021480074924199        0.0000000000000000                1
   43.999676554429399        58.903481403251298        0.0000000000000000                1
   44.062911851988297        58.785482732044301        0.0000000000000000                1
   44.126147149547201        58.667484059929897        0.0000000000000000                1
   44.189382447106198        58.549485388268799        0.0000000000000000                1
   44.252617744665102        58.431486716612000        0.0000000000000000                1
   44.315853042223999        58.313488044947199        0.0000000000000000                1
   44.379088339782903        58.195489373303303        0.0000000000000000                1
   44.442323637341801        58.077490701625599        0.0000000000000000                1
   44.505558934900698        57.959492029985000        0.0000000000000000                1
   44.568794232459702        57.841493358304000        0.0000000000000000                1
   44.632029530018599        57.723494686647001        0.0000000000000000                1
   44.695264827577503        57.605496014982400        0.0000000000000000                1
   44.758500125136401        57.487497343321600        0.0000000000000000                1
   44.821735422695298        57.369498671660800        0.0000000000000000                1
   44.884970720254302        57.251500000000000        0.0000000000000000                1
   44.969637386920901        57.251500000000000        0.0000000000000000                1
   45.054304053587600        57.251500000000000        0.0000000000000000                1
   45.138970720254200        57.251500000000000        0.0000000000000000                1
   45.202206017813197        57.369498671660800        0.0000000000000000                1
   45.265441315372101        57.487497343321600        0.0000000000000000                1
   45.328676612930998        57.605496014982400        0.0000000000000000                1
   45.391911910489902        57.723494686647001        0.0000000000000000                1
   45.455147208048800        57.841493358304000        0.0000000000000000                1
   45.518382505607804        57.959492029985000        0.0000000000000000                1
   45.581617803166701        58.077490701625599        0.0000000000000000                1
   45.644853100725598        58.195489373303303        0.0000000000000000                1
   40.211738729113797        58.148856465877600        0.0000000000000000                1
   40.274974026672702        57.995526200531501        0.0000000000000000                1
   40.338209324231599        57.843500688701099        0.0000000000000000                1
   40.401444621790603        57.693093684024703        0.0000000000000000                1
   40.464679919349500        57.544803207676402        0.0000000000000000                1
   40.527915216908397        57.399535640906102        0.0000000000000000                1
   40.591150514467301        57.259448167446799        0.0000000000000000                1
   40.675817181134001        57.259448167446799        0.0000000000000000                1
   40.760483847800600        57.259448167446799        0.0000000000000000                1
   40.845150514467299        57.259448167446799        0.0000000000000000                1
   40.908385812026197        57.399535640906102        0.0000000000000000                1
   40.971621109585101        57.544803207676402        0.0000000000000000                1
   41.034856407144098        57.693093684024703        0.0000000000000000                1
   41.098091704703002        57.843500688701099        0.0000000000000000                1
   41.161327002261899        57.995526200531501        0.0000000000000000                1
   41.224562299820803        58.148856465877600        0.0000000000000000                1
   41.287797597379701        58.303276348058397        0.0000000000000000                1
   41.351032894938598        58.458629517126099        0.0000000000000000                1
   41.414268192497602        58.614797457729999        0.0000000000000000                1
   41.477503490056499        58.771687366699297        0.0000000000000000                1
   41.540738787615403        58.929224694458398        0.0000000000000000                1
   41.603974085174301        59.087348302644600        0.0000000000000000                1
   41.667209382733198        59.246007186178403        0.0000000000000000                1
   41.730444680292202        59.405158178764601        0.0000000000000000                1
   41.793679977851099        59.564764294840401        0.0000000000000000                1
   41.842153052770399        59.659280406087099        0.0000000000000000                1
   41.910326078164800        59.748166388737900        0.0000000000000000                1
   41.996759463151903        59.829513182343298        0.0000000000000000                1
   42.099628017896997        59.901568908778501        0.0000000000000000                1
   42.216759495640801        59.962778323829703        0.0000000000000000                1
   42.345680463432203        60.011817929620499        0.0000000000000000                1
   42.483668532926302        60.047625903956600        0.0000000000000000                1
   42.627809848304601        60.069426137952199        0.0000000000000000                1
   42.775060617360801        60.076745817458203        0.0000000000000000                1
   42.865060617360797        60.076745817458203        0.0000000000000000                1
   42.955060617360800        60.076745817458203        0.0000000000000000                1
   43.102311386416901        60.069426137952199        0.0000000000000000                1
   43.246452701795299        60.047625903956600        0.0000000000000000                1
   43.384440771289299        60.011817929620499        0.0000000000000000                1
   43.513361739080700        59.962778323829703        0.0000000000000000                1
   43.630493216824497        59.901568908778501        0.0000000000000000                1
   43.733361771569697        59.829513182343298        0.0000000000000000                1
   43.819795156556800        59.748166388737900        0.0000000000000000                1
   43.887968181951102        59.659280406087099        0.0000000000000000                1
   43.936441256870502        59.564764294840401        0.0000000000000000                1
   43.999676554429399        59.405158178764601        0.0000000000000000                1
   44.062911851988297        59.246007186178403        0.0000000000000000                1
   44.126147149547201        59.087348302644600        0.0000000000000000                1
   44.189382447106198        58.929224694458398        0.0000000000000000                1
   44.252617744665102        58.771687366699297        0.0000000000000000                1
   44.315853042223999        58.614797457729999        0.0000000000000000                1
   44.379088339782903        58.458629517126099        0.0000000000000000                1
   44.442323637341801        58.303276348058397        0.0000000000000000                1
   44.505558934900698        58.148856465877600        0.0000000000000000                1
   44.568794232459702        57.995526200531501        0.0000000000000000                1
   44.632029530018599        57.843500688701099        0.0000000000000000                1
   44.695264827577503        57.693093684024703        0.0000000000000000                1
   44.758500125136401        57.544803207676402        0.0000000000000000                1
   44.821735422695298        57.399535640906102        0.0000000000000000                1
   44.884970720254302        57.259448167446799        0.0000000000000000                1
   44.969637386920901        57.259448167446799        0.0000000000000000                1
   45.054304053587600        57.259448167446799        0.0000000000000000                1
   45.138970720254200        57.259448167446799        0.0000000000000000                1
   45.202206017813197        57.399535640906102        0.0000000000000000                1
   45.265441315372101        57.544803207676402        0.0000000000000000                1
   45.328676612930998        57.693093684024703        0.0000000000000000                1
   45.391911910489902        57.843500688701099        0.0000000000000000                1
   45.455147208048800        57.995526200531501        0.0000000000000000                1
   45.518382505607804        58.148856465877600        0.0000000000000000                1
   45.581617803166701        58.303276348058397        0.0000000000000000                1
   45.644853100725598        58.458629517126099        0.0000000000000000                1
   40.211738729113797        58.295113718480899        0.0000000000000000                1
   40.274974026672702        58.116399721967099        0.0000000000000000                1
   40.338209324231599        57.939498221566197        0.0000000000000000                1
   40.401444621790603        57.764883995887800        0.0000000000000000                1
   40.464679919349500        57.593326334536599        0.0000000000000000                1
   40.527915216908397        57.426264846360702        0.0000000000000000                1
   40.591150514467301        57.267282671212200        0.0000000000000000                1
   40.675817181134001        57.267282671212200        0.0000000000000000                1
   40.760483847800600        57.267282671212200        0.0000000000000000                1
   40.845150514467299        57.267282671212200        0.0000000000000000                1
   40.908385812026197        57.426264846360702        0.0000000000000000                1
   40.971621109585101        57.593326334536599        0.0000000000000000                1
   41.034856407144098        57.764883995887800        0.0000000000000000                1
   41.098091704703002        57.939498221566197        0.0000000000000000                1
   41.161327002261899        58.116399721967099        0.0000000000000000                1
   41.224562299820803        58.295113718480899        0.0000000000000000                1
   41.287797597379701        58.475319963201102        0.0000000000000000                1
   41.351032894938598        58.656788909862001        0.0000000000000000                1
   41.414268192497602        58.839348568904597        0.0000000000000000                1
   41.477503490056499        59.022865643281101        0.0000000000000000                1
   41.540738787615403        59.207234030762898        0.0000000000000000                1
   41.603974085174301        59.392367431951101        0.0000000000000000                1
   41.667209382733198        59.578194390134300        0.0000000000000000                1
   41.730444680292202        59.764654845164401        0.0000000000000000                1
   41.793679977851099        59.951697664513702        0.0000000000000000                1
   41.842153052770399        60.062481696554102        0.0000000000000000                1
   41.910326078164800        60.166678988698798        0.0000000000000000                1
   41.996759463151903        60.262048167163599        0.0000000000000000                1
   42.099628017896997        60.346531958828798        0.0000000000000000                1
   42.216759495640801        60.418303713530101        0.0000000000000000                1
   42.345680463432203        60.475808792071703        0.0000000000000000                1
   42.483668532926302        60.517799831368897        0.0000000000000000                1
   42.627809848304601        60.543365057903102        0.0000000000000000                1
   42.775060617360801        60.551948990980200        0.0000000000000000                1
   42.865060617360797        60.551948990980200        0.0000000000000000                1
   42.955060617360800        60.551948990980200        0.0000000000000000                1
   43.102311386416901        60.543365057903102        0.0000000000000000                1
   43.246452701795299        60.517799831368897        0.0000000000000000                1
   43.384440771289299        60.475808792071703        0.0000000000000000                1
   43.513361739080700        60.418303713530101        0.0000000000000000                1
   43.630493216824497        60.346531958828798        0.0000000000000000                1
   43.733361771569697        60.262048167163599        0.0000000000000000                1
   43.819795156556800        60.166678988698798        0.0000000000000000                1
   43.887968181951102        60.062481696554102        0.0000000000000000                1