 variables = x, y, z, active
 zone f = fepoint, et = brick, n =         4144 , e =         3066
   34.277420205786903        58.244051009019799        0.0000000000000000                1
   34.367420205786900        58.244051009019799        0.0000000000000000                1
   34.514670974843099        58.241907646895100        0.0000000000000000                1
   34.658812290221398        58.235517513143698        0.0000000000000000                1
   34.796800359715398        58.224999919557497        0.0000000000000000                1
   34.925721327506800        58.210551902865497        0.0000000000000000                1
   35.042852805250703        58.192445513552101        0.0000000000000000                1
   35.145721359995797        58.171024044277900        0.0000000000000000                1
   35.232154744982900        58.146697216921098        0.0000000000000000                1
   35.300327770377301        58.119935345741602        0.0000000000000000                1
   35.348800845296601        58.091262485310502        0.0000000000000000                1
   35.412036142855499        58.042307961338103        0.0000000000000000                1
   35.475271440414403        57.992771073046598        0.0000000000000000                1
   35.538506737973300        57.942600687908197        0.0000000000000000                1
   35.601742035532297        57.891736745774899        0.0000000000000000                1
   35.664977333091201        57.840107789934997        0.0000000000000000                1
   35.728212630650098        57.787627520989901        0.0000000000000000                1
   35.791447928209003        57.734189836710797        0.0000000000000000                1
   35.854683225767900        57.679661440050197        0.0000000000000000                1
   35.917918523326897        57.623870341448701        0.0000000000000000                1
   35.981153820885801        57.566586994640900        0.0000000000000000                1
   36.044389118444698        57.507491151720203        0.0000000000000000                1
   36.107624416003603        57.446108034077000        0.0000000000000000                1
   36.170859713562500        57.381668352106502        0.0000000000000000                1
   36.234095011121397        57.312732496960898        0.0000000000000000                1
   36.297330308680401        57.235717328787700        0.0000000000000000                1
   36.381996975347001        57.235717328787700        0.0000000000000000                1
   36.466663642013700        57.235717328787700        0.0000000000000000                1
   36.551330308680399        57.235717328787700        0.0000000000000000                1
   36.614565606239303        57.312732496960898        0.0000000000000000                1
   36.677800903798200        57.381668352106502        0.0000000000000000                1
   36.741036201357097        57.446108034077000        0.0000000000000000                1
   36.804271498916002        57.507491151720203        0.0000000000000000                1
   36.867506796474899        57.566586994640900        0.0000000000000000                1
   36.930742094033903        57.623870341448701        0.0000000000000000                1
   36.993977391592800        57.679661440050197        0.0000000000000000                1
   37.057212689151697        57.734189836710797        0.0000000000000000                1
   37.120447986710602        57.787627520989901        0.0000000000000000                1
   37.183683284269499        57.840107789934997        0.0000000000000000                1
   37.246918581828503        57.891736745774899        0.0000000000000000                1
   37.310153879387400        57.942600687908197        0.0000000000000000                1
   37.373389176946297        57.992771073046598        0.0000000000000000                1
   37.436624474505201        58.042307961338103        0.0000000000000000                1
   37.499859772064099        58.091262485310502        0.0000000000000000                1
   37.548332846983499        58.119935345741602        0.0000000000000000                1
   37.616505872377800        58.146697216921098        0.0000000000000000                1
   37.702939257364903        58.171024044277900        0.0000000000000000                1
   37.805807812110103        58.192445513552101        0.0000000000000000                1
   37.922939289853900        58.210551902865497        0.0000000000000000                1
   38.051860257645302        58.224999919557497        0.0000000000000000                1
   38.189848327139401        58.235517513143698        0.0000000000000000                1
   38.333989642517700        58.241907646895100        0.0000000000000000                1
   38.481240411573800        58.244051009019799        0.0000000000000000                1
   38.571240411573797        58.244051009019799        0.0000000000000000                1
   38.661240411573800        58.244051009019799        0.0000000000000000                1
   38.808491180630000        58.241907646895100        0.0000000000000000                1
   38.952632496008299        58.235517513143698        0.0000000000000000                1
   39.090620565502398        58.224999919557497        0.0000000000000000                1
   39.219541533293800        58.210551902865497        0.0000000000000000                1
   39.336673011037597        58.192445513552101        0.0000000000000000                1
   39.439541565782697        58.171024044277900        0.0000000000000000                1
   39.525974950769800        58.146697216921098        0.0000000000000000                1
   39.594147976164201        58.119935345741602        0.0000000000000000                1
   39.642621051083502        58.091262485310502        0.0000000000000000                1
   39.705856348642399        58.042307961338103        0.0000000000000000                1
   39.769091646201403        57.992771073046598        0.0000000000000000                1
   39.832326943760300        57.942600687908197        0.0000000000000000                1
   39.895562241319197        57.891736745774899        0.0000000000000000                1
   39.958797538878102        57.840107789934997        0.0000000000000000                1
   40.022032836436999        57.787627520989901        0.0000000000000000                1
   40.085268133996003        57.734189836710797        0.0000000000000000                1
   40.148503431554900        57.679661440050197        0.0000000000000000                1
   34.277420205786903        58.719254182541803        0.0000000000000000                1
   34.367420205786900        58.719254182541803        0.0000000000000000                1
   34.514670974843099        58.715846566846103        0.0000000000000000                1
   34.658812290221398        58.705691440556002        0.0000000000000000                1
   34.796800359715398        58.688990782008702        0.0000000000000000                1
   34.925721327506800        58.666077292565802        0.0000000000000000                1
   35.042852805250703        58.637408563602399        0.0000000000000000                1
   35.145721359995797        58.603559029098200        0.0000000000000000                1
   35.232154744982900        58.565209816882003        0.0000000000000000                1
   35.300327770377301        58.523136636208697        0.0000000000000000                1
   35.348800845296601        58.478195854983802        0.0000000000000000                1
   35.412036142855499        58.401804627738002        0.0000000000000000                1
   35.475271440414403        58.324958277002501        0.0000000000000000                1
   35.538506737973300        58.247619817214698        0.0000000000000000                1
   35.601742035532297        58.169746082079300        0.0000000000000000                1
   35.664977333091201        58.091286066516801        0.0000000000000000                1
   35.728212630650098        58.012178632164499        0.0000000000000000                1
   35.791447928209003        57.932349229446800        0.0000000000000000                1
   35.854683225767900        57.851705055192902        0.0000000000000000                1
   35.917918523326897        57.770127594051999        0.0000000000000000                1
   35.981153820885801        57.687460516076598        0.0000000000000000                1
   36.044389118444698        57.603488684585301        0.0000000000000000                1
   36.107624416003603        57.517898345940097        0.0000000000000000                1
   36.170859713562500        57.430191478966798        0.0000000000000000                1
   36.234095011121397        57.339461702415498        0.0000000000000000                1
   36.297330308680401        57.243551832553102        0.0000000000000000                1
   36.381996975347001        57.243551832553102        0.0000000000000000                1
   36.466663642013700        57.243551832553102        0.0000000000000000                1
   36.551330308680399        57.243551832553102        0.0000000000000000                1
   36.614565606239303        57.339461702415498        0.0000000000000000                1
   36.677800903798200        57.430191478966798        0.0000000000000000                1
   36.741036201357097        57.517898345940097        0.0000000000000000                1
   36.804271498916002        57.603488684585301        0.0000000000000000                1
   36.867506796474899        57.687460516076598        0.0000000000000000                1
   36.930742094033903        57.770127594051999        0.0000000000000000                1
   36.993977391592800        57.851705055192902        0.0000000000000000                1
   37.057212689151697        57.932349229446800        0.0000000000000000                1
   37.120447986710602        58.012178632164499        0.0000000000000000                1
   37.183683284269499        58.091286066516801        0.0000000000000000                1
   37.246918581828503        58.169746082079300        0.0000000000000000                1
   37.310153879387400        58.247619817214698        0.0000000000000000                1
   37.373389176946297        58.324958277002501        0.0000000000000000                1
   37.436624474505201        58.401804627738002        0.0000000000000000                1
   37.499859772064099        58.478195854983802        0.0000000000000000                1
   37.548332846983499        58.523136636208697        0.0000000000000000                1
   37.616505872377800        58.565209816882003        0.0000000000000000                1
   37.702939257364903        58.603559029098200        0.0000000000000000                1
   37.805807812110103        58.637408563602399        0.0000000000000000                1
   37.922939289853900        58.666077292565802        0.0000000000000000                1
   38.051860257645302        58.688990782008702        0.0000000000000000                1
   38.189848327139401        58.705691440556002        0.0000000000000000                1
   38.333989642517700        58.715846566846103        0.0000000000000000                1
   38.481240411573800        58.719254182541803        0.0000000000000000                1
   38.571240411573797        58.719254182541803        0.0000000000000000                1
   38.661240411573800        58.719254182541803        0.0000000000000000                1
   38.808491180630000        58.715846566846103        0.0000000000000000                1
   38.952632496008299        58.705691440556002        0.0000000000000000                1
   39.090620565502398        58.688990782008702        0.0000000000000000                1
   39.219541533293800        58.666077292565802        0.0000000000000000                1
   39.336673011037597        58.637408563602399        0.0000000000000000                1
   39.439541565782697        58.603559029098200        0.0000000000000000                1
   39.525974950769800        58.565209816882003        0.0000000000000000                1
   39.594147976164201        58.523136636208697        0.0000000000000000                1
   39.642621051083502        58.478195854983802        0.0000000000000000                1
   39.705856348642399        58.401804627738002        0.0000000000000000                1
   39.769091646201403        58.324958277002501        0.0000000000000000                1
   39.832326943760300        58.247619817214698        0.0000000000000000                1
   39.895562241319197        58.169746082079300        0.0000000000000000                1
   39.958797538878102        58.091286066516801        0.0000000000000000                1
   40.022032836436999        58.012178632164499        0.0000000000000000                1
   40.085268133996003        57.932349229446800        0.0000000000000000                1
   40.148503431554900        57.851705055192902        0.0000000000000000                1
   34.277420205786903        59.398000000212200        0.0000000000000000                1
   34.367420205786900        59.398000000212200        0.0000000000000000                1
   34.514670974843099        59.392636352562199        0.0000000000000000                1
   34.658812290221398        59.376658672329299        0.0000000000000000                1
   34.796800359715398        59.350404355832900        0.0000000000000000                1
   34.925721327506800        59.314427808200200        0.0000000000000000                1
   35.042852805250703        59.269488736190603        0.0000000000000000                1
   35.145721359995797        59.216536105720799        0.0000000000000000                1
   35.232154744982900        59.156688102810001        0.0000000000000000                1
   35.300327770377301        59.091208521695997        0.0000000000000000                1
   35.348800845296601        59.021480074924199        0.0000000000000000                1
   35.412036142855499        58.903481403251298        0.0000000000000000                1
   35.475271440414403        58.785482732044301        0.0000000000000000                1
   35.538506737973300        58.667484059929897        0.0000000000000000                1
   35.601742035532297        58.549485388268799        0.0000000000000000                1
   35.664977333091201        58.431486716612000        0.0000000000000000                1
   35.728212630650098        58.313488044947199        0.0000000000000000                1
   35.791447928209003        58.195489373303303        0.0000000000000000                1
   35.854683225767900        58.077490701625599        0.0000000000000000                1
   35.917918523326897        57.959492029985000        0.0000000000000000                1
   35.981153820885801        57.841493358304000        0.0000000000000000                1
   36.044389118444698        57.723494686647001        0.0000000000000000                1
   36.107624416003603        57.605496014982400        0.0000000000000000                1
   36.170859713562500        57.487497343321600        0.0000000000000000                1
   36.234095011121397        57.369498671660800        0.0000000000000000                1
   36.297330308680401        57.251500000000000        0.0000000000000000                1
   36.381996975347001        57.251500000000000        0.0000000000000000                1
   36.466663642013700        57.251500000000000        0.0000000000000000                1
   36.551330308680399        57.251500000000000        0.0000000000000000                1
   36.614565606239303        57.369498671660800        0.0000000000000000                1
   36.677800903798200        57.487497343321600        0.0000000000000000                1
   36.741036201357097        57.605496014982400        0.0000000000000000                1
   36.804271498916002        57.723494686647001        0.0000000000000000                1
   36.867506796474899        57.841493358304000        0.0000000000000000                1
   36.930742094033903        57.959492029985000        0.0000000000000000                1
   36.993977391592800        58.077490701625599        0.0000000000000000                1
   37.057212689151697        58.195489373303303        0.0000000000000000                1
   37.120447986710602        58.313488044947199        0.0000000000000000                1
   37.183683284269499        58.431486716612000        0.0000000000000000                1
   37.246918581828503        58.549485388268799        0.0000000000000000                1
   37.310153879387400        58.667484059929897        0.0000000000000000                1
   37.373389176946297        58.785482732044301        0.0000000000000000                1
   37.436624474505201        58.903481403251298        0.0000000000000000                1
   37.499859772064099        59.021480074924199        0.0000000000000000                1
   37.548332846983499        59.091208521695997        0.0000000000000000                1
   37.616505872377800        59.156688102810001        0.0000000000000000                1
   37.702939257364903        59.216536105720799        0.0000000000000000                1
   37.805807812110103        59.269488736190603        0.0000000000000000                1
   37.922939289853900        59.314427808200200        0.0000000000000000                1
   38.051860257645302        59.350404355832900        0.0000000000000000                1
   38.189848327139401        59.376658672329299        0.0000000000000000                1
   38.333989642517700        59.392636352562199        0.0000000000000000                1
   38.481240411573800        59.398000000212200        0.0000000000000000                1
   38.571240411573797        59.398000000212200        0.0000000000000000                1
   38.661240411573800        59.398000000212200        0.0000000000000000                1
   38.808491180630000        59.392636352562199        0.0000000000000000                1
   38.952632496008299        59.376658672329299        0.0000000000000000                1
   39.090620565502398        59.350404355832900        0.0000000000000000                1
   39.219541533293800        59.314427808200200        0.0000000000000000                1
   39.336673011037597        59.269488736190603        0.0000000000000000                1
   39.439541565782697        59.216536105720799        0.0000000000000000                1
   39.525974950769800        59.156688102810001        0.0000000000000000                1
   39.594147976164201        59.091208521695997        0.0000000000000000                1
   39.642621051083502        59.021480074924199        0.0000000000000000                1
   39.705856348642399        58.903481403251298        0.0000000000000000                1
   39.769091646201403        58.785482732044301        0.0000000000000000                1
   39.832326943760300        58.667484059929897        0.0000000000000000                1
   39.895562241319197        58.549485388268799        0.0000000000000000                1
   39.958797538878102        58.431486716612000        0.0000000000000000                1
   40.022032836436999        58.313488044947199        0.0000000000000000                1
   40.085268133996003        58.195489373303303        0.0000000000000000                1
   40.148503431554900        58.077490701625599        0.0000000000000000                1
   34.277420205786903        60.076745817458203        0.0000000000000000                1
   34.367420205786900        60.076745817458203        0.0000000000000000                1
   34.514670974843099        60.069426137952199        0.0000000000000000                1
   34.658812290221398        60.047625903956600        0.0000000000000000                1
   34.796800359715398        60.011817929620499        0.0000000000000000                1
   34.925721327506800        59.962778323829703        0.0000000000000000                1
   35.042852805250703        59.901568908778501        0.0000000000000000                1
   35.145721359995797        59.829513182343298        0.0000000000000000                1
   35.232154744982900        59.748166388737900        0.0000000000000000                1
   35.300327770377301        59.659280406087099        0.0000000000000000                1
   35.348800845296601        59.564764294840401        0.0000000000000000                1
   35.412036142855499        59.405158178764601        0.0000000000000000                1
   35.475271440414403        59.246007186178403        0.0000000000000000                1
   35.538506737973300        59.087348302644600        0.0000000000000000                1
   35.601742035532297        58.929224694458398        0.0000000000000000                1
   35.664977333091201        58.771687366699297        0.0000000000000000                1
   35.728212630650098        58.614797457729999        0.0000000000000000                1
   35.791447928209003        58.458629517126099        0.0000000000000000                1
   35.854683225767900        58.303276348058397        0.0000000000000000                1
   35.917918523326897        58.148856465877600        0.0000000000000000                1
   35.981153820885801        57.995526200531501        0.0000000000000000                1
   36.044389118444698        57.843500688701099        0.0000000000000000                1
   36.107624416003603        57.693093684024703        0.0000000000000000                1
   36.170859713562500        57.544803207676402        0.0000000000000000                1
   36.234095011121397        57.399535640906102        0.0000000000000000                1
   36.297330308680401        57.259448167446799        0.0000000000000000                1
   36.381996975347001        57.259448167446799        0.0000000000000000                1
   36.466663642013700        57.259448167446799        0.0000000000000000                1
   36.551330308680399        57.259448167446799        0.0000000000000000                1
   36.614565606239303        57.399535640906102        0.0000000000000000                1
   36.677800903798200        57.544803207676402        0.0000000000000000                1
   36.741036201357097        57.693093684024703        0.0000000000000000                1
   36.804271498916002        57.843500688701099        0.0000000000000000                1
   36.867506796474899        57.995526200531501        0.0000000000000000                1
   36.930742094033903        58.148856465877600        0.0000000000000000                1
   36.993977391592800        58.303276348058397        0.0000000000000000                1
   37.057212689151697        58.458629517126099        0.0000000000000000                1
   37.120447986710602        58.614797457729999        0.0000000000000000                1
   37.183683284269499        58.771687366699297        0.0000000000000000                1
   37.246918581828503        58.929224694458398        0.0000000000000000                1
   37.310153879387400        59.087348302644600        0.0000000000000000                1
   37.373389176946297        59.246007186178403        0.0000000000000000                1
   37.436624474505201        59.405158178764601        0.0000000000000000                1
   37.499859772064099        59.564764294840401        0.0000000000000000                1
   37.548332846983499        59.659280406087099        0.0000000000000000                1
   37.616505872377800        59.748166388737900        0.0000000000000000                1
   37.702939257364903        59.829513182343298        0.0000000000000000                1
   37.805807812110103        59.901568908778501        0.0000000000000000                1
   37.922939289853900        59.962778323829703        0.0000000000000000                1
   38.051860257645302        60.011817929620499        0.0000000000000000                1
   38.189848327139401        60.047625903956600        0.0000000000000000                1
   38.333989642517700        60.069426137952199        0.0000000000000000                1
   38.481240411573800        60.076745817458203        0.0000000000000000                1
   38.571240411573797        60.076745817458203        0.0000000000000000                1
   38.661240411573800        60.076745817458203        0.0000000000000000                1
   38.808491180630000        60.069426137952199        0.0000000000000000                1
   38.952632496008299        60.047625903956600        0.0000000000000000                1
   39.090620565502398        60.011817929620499        0.0000000000000000                1
   39.219541533293800        59.962778323829703        0.0000000000000000                1
   39.336673011037597        59.901568908778501        0.0000000000000000                1
   39.439541565782697        59.829513182343298        0.0000000000000000                1
   39.525974950769800        59.748166388737900        0.0000000000000000                1
   39.594147976164201        59.659280406087099        0.0000000000000000                1
   39.642621051083502        59.564764294840401        0.0000000000000000                1
   39.705856348642399        59.405158178764601        0.0000000000000000                1
   39.769091646201403        59.246007186178403        0.0000000000000000                1
   39.832326943760300        59.087348302644600        0.0000000000000000                1
   39.895562241319197        58.929224694458398        0.0000000000000000                1
   39.958797538878102        58.771687366699297        0.0000000000000000                1
   40.022032836436999        58.614797457729999        0.0000000000000000                1
   40.085268133996003        58.458629517126099        0.0000000000000000                1
   40.148503431554900        58.303276348058397        0.0000000000000000                1
   34.277420205786903        60.551948990980200        0.0000000000000000                1
   34.367420205786900        60.551948990980200        0.0000000000000000                1
   34.514670974843099        60.543365057903102        0.0000000000000000                1
   34.658812290221398        60.517799831368897        0.0000000000000000                1
   34.796800359715398        60.475808792071703        0.0000000000000000                1
   34.925721327506800        60.418303713530101        0.0000000000000000                1
   35.042852805250703        60.346531958828798        0.0000000000000000                1
   35.145721359995797        60.262048167163599        0.0000000000000000                1
   35.232154744982900        60.166678988698798        0.0000000000000000                1
   35.300327770377301        60.062481696554102        0.0000000000000000                1
   35.348800845296601        59.951697664513702        0.0000000000000000                1
   35.412036142855499        59.764654845164401        0.0000000000000000                1
   35.475271440414403        59.578194390134300        0.0000000000000000                1
   35.538506737973300        59.392367431951101        0.0000000000000000                1
   35.601742035532297        59.207234030762898        0.0000000000000000                1
   35.664977333091201        59.022865643281101        0.0000000000000000                1
   35.728212630650098        58.839348568904597        0.0000000000000000                1
   35.791447928209003        58.656788909862001        0.0000000000000000                1
   35.854683225767900        58.475319963201102        0.0000000000000000                1
   35.917918523326897        58.295113718480899        0.0000000000000000                1
   35.981153820885801        58.116399721967099        0.0000000000000000                1
   36.044389118444698        57.939498221566197        0.0000000000000000                1
   36.107624416003603        57.764883995887800        0.0000000000000000                1
   36.170859713562500        57.593326334536599        0.0000000000000000                1
   36.234095011121397        57.426264846360702        0.0000000000000000                1
   36.297330308680401        57.267282671212200        0.0000000000000000                1
   36.381996975347001        57.267282671212200        0.0000000000000000                1
   36.466663642013700        57.267282671212200        0.0000000000000000                1
   36.551330308680399        57.267282671212200        0.0000000000000000                1
   36.614565606239303        57.426264846360702        0.0000000000000000                1
   36.677800903798200        57.593326334536599        0.0000000000000000                1
   36.741036201357097        57.764883995887800        0.0000000000000000                1
   36.804271498916002        57.939498221566197        0.0000000000000000                1
   36.867506796474899        58.116399721967099        0.0000000000000000                1
   36.930742094033903        58.295113718480899        0.0000000000000000                1
   36.993977391592800        58.475319963201102        0.0000000000000000                1
   37.057212689151697        58.656788909862001        0.0000000000000000                1
   37.120447986710602        58.839348568904597        0.0000000000000000                1
   37.183683284269499        59.022865643281101        0.0000000000000000                1
   37.246918581828503        59.207234030762898        0.0000000000000000                1