 variables = x, y, z, active
 zone f = fepoint, et = brick, n =         3066 , e =         2160
   0.0000000000000000        61.597343227576502        0.0000000000000000                1
   5.2824689899894999        61.597343227576502        0.0000000000000000                1
   9.6585678509430402        61.597343227576502        0.0000000000000000                1
   13.283812121969300        61.597343227576502        0.0000000000000000                1
   16.287034042267599        61.597343227576502        0.0000000000000000                1
   18.774960711001501        61.597343227576502        0.0000000000000000                1
   20.836006905144199        61.597343227576502        0.0000000000000000                1
   22.543417122565199        61.597343227576502        0.0000000000000000                1
   23.957868510815700        61.597343227576502        0.0000000000000000                1
   25.129627183283802        61.597343227576502        0.0000000000000000                1
   26.100334552875701        61.597343227576502        0.0000000000000000                1
   26.904487165115601        61.597343227576502        0.0000000000000000                1
   27.570662620283102        61.597343227576502        0.0000000000000000                1
   28.122535150836001        61.597343227576502        0.0000000000000000                1
   28.579716945236200        61.597343227576502        0.0000000000000000                1
   28.958455116751399        61.597343227576502        0.0000000000000000                1
   29.272209085784201        61.597343227576502        0.0000000000000000                1
   29.532128894474301        61.597343227576502        0.0000000000000000                1
   29.747451451692498        61.597343227576502        0.0000000000000000                1
   29.925828789997801        61.597343227576502        0.0000000000000000                1
   30.073599999999999        61.597343227576502        0.0000000000000000                1
   30.220850769056199        61.586636777503301        0.0000000000000000                1
   30.364992084434501        61.554743756253600        0.0000000000000000                1
   30.502980153928601        61.502338361406999        0.0000000000000000                1
   30.631901121719899        61.430528392128203        0.0000000000000000                1
   30.749032599463799        61.340831805244100        0.0000000000000000                1
   30.851901154208900        61.235144588815402        0.0000000000000000                1
   30.938334539195999        61.115700630966600        0.0000000000000000                1
   31.006507564590400        60.985024431144602        0.0000000000000000                1
   31.054980639509701        60.845877653048902        0.0000000000000000                1
   31.118215937068602        60.610427540153800        0.0000000000000000                1
   31.181451234627499        60.375008765818599        0.0000000000000000                1
   31.244686532186400        60.139625656621597        0.0000000000000000                1
   31.307921829745400        59.904283541794697        0.0000000000000000                1
   31.371157127304301        59.668989096221097        0.0000000000000000                1
   31.434392424863201        59.433750845975602        0.0000000000000000                1
   31.497627722422099        59.198579939660199        0.0000000000000000                1
   31.560863019980999        58.963491374913900        0.0000000000000000                1
   31.624098317539900        58.728506049771603        0.0000000000000000                1
   31.687333615098801        58.493654417725502        0.0000000000000000                1
   31.750568912657801        58.258983555278903        0.0000000000000000                1
   31.813804210216698        58.024572423068200        0.0000000000000000                1
   31.877039507775599        57.790570488710102        0.0000000000000000                1
   31.940274805334500        57.557323689344301        0.0000000000000000                1
   32.003510102893401        57.326057065376098        0.0000000000000000                1
   32.088176769560100        57.326057065376098        0.0000000000000000                1
   32.172843436226799        57.326057065376098        0.0000000000000000                1
   32.257510102893399        57.326057065376098        0.0000000000000000                1
   32.320745400452303        57.557323689344301        0.0000000000000000                1
   32.383980698011200        57.790570488710102        0.0000000000000000                1
   32.447215995570197        58.024572423068200        0.0000000000000000                1
   32.510451293129101        58.258983555278903        0.0000000000000000                1
   32.573686590687998        58.493654417725502        0.0000000000000000                1
   32.636921888246903        58.728506049771603        0.0000000000000000                1
   32.700157185805800        58.963491374913900        0.0000000000000000                1
   32.763392483364797        59.198579939660199        0.0000000000000000                1
   32.826627780923701        59.433750845975602        0.0000000000000000                1
   32.889863078482598        59.668989096221097        0.0000000000000000                1
   32.953098376041503        59.904283541794697        0.0000000000000000                1
   33.016333673600400        60.139625656621597        0.0000000000000000                1
   33.079568971159397        60.375008765818599        0.0000000000000000                1
   33.142804268718301        60.610427540153800        0.0000000000000000                1
   33.206039566277198        60.845877653048902        0.0000000000000000                1
   33.254512641196499        60.985024431144602        0.0000000000000000                1
   33.322685666590900        61.115700630966600        0.0000000000000000                1
   33.409119051578003        61.235144588815402        0.0000000000000000                1
   33.511987606323103        61.340831805244100        0.0000000000000000                1
   33.629119084067000        61.430528392128203        0.0000000000000000                1
   33.758040051858302        61.502338361406999        0.0000000000000000                1
   33.896028121352401        61.554743756253600        0.0000000000000000                1
   34.040169436730700        61.586636777503301        0.0000000000000000                1
   34.187420205786900        61.597343227576502        0.0000000000000000                1
   0.0000000000000000        61.616548869352599        0.0000000000000000                1
   5.2824689899894999        61.616548869352599        0.0000000000000000                1
   9.6585678509430402        61.616548869352599        0.0000000000000000                1
   13.283812121969300        61.616548869352599        0.0000000000000000                1
   16.287034042267599        61.616548869352599        0.0000000000000000                1
   18.774960711001501        61.616548869352599        0.0000000000000000                1
   20.836006905144199        61.616548869352599        0.0000000000000000                1
   22.543417122565199        61.616548869352599        0.0000000000000000                1
   23.957868510815700        61.616548869352599        0.0000000000000000                1
   25.129627183283802        61.616548869352599        0.0000000000000000                1
   26.100334552875701        61.616548869352599        0.0000000000000000                1
   26.904487165115601        61.616548869352599        0.0000000000000000                1
   27.570662620283102        61.616548869352599        0.0000000000000000                1
   28.122535150836001        61.616548869352599        0.0000000000000000                1
   28.579716945236200        61.616548869352599        0.0000000000000000                1
   28.958455116751399        61.616548869352599        0.0000000000000000                1
   29.272209085784201        61.616548869352599        0.0000000000000000                1
   29.532128894474301        61.616548869352599        0.0000000000000000                1
   29.747451451692498        61.616548869352599        0.0000000000000000                1
   29.925828789997801        61.616548869352599        0.0000000000000000                1
   30.073599999999999        61.616548869352599        0.0000000000000000                1
   30.220850769056199        61.605829632610302        0.0000000000000000                1
   30.364992084434501        61.573898380049002        0.0000000000000000                1
   30.502980153928601        61.521429698590303        0.0000000000000000                1
   30.631901121719899        61.449532047158002        0.0000000000000000                1
   30.749032599463799        61.359724329051801        0.0000000000000000                1
   30.851901154208900        61.253903788276297        0.0000000000000000                1
   30.938334539195999        61.134305907331502        0.0000000000000000                1
   31.006507564590400        61.003457152985597        0.0000000000000000                1
   31.054980639509701        60.864121567934497        0.0000000000000000                1
   31.118215937068602        60.628339071108400        0.0000000000000000                1
   31.181451234627499        60.392569987122599        0.0000000000000000                1
   31.244686532186400        60.156816245747102        0.0000000000000000                1
   31.307921829745400        59.921080236797600        0.0000000000000000                1
   31.371157127304301        59.685364971051797        0.0000000000000000                1
   31.434392424863201        59.449674318878500        0.0000000000000000                1
   31.497627722422099        59.214013376775902        0.0000000000000000                1
   31.560863019980999        58.978389054555400        0.0000000000000000                1
   31.624098317539900        58.742811065637703        0.0000000000000000                1
   31.687333615098801        58.507293708392503        0.0000000000000000                1
   31.750568912657801        58.271859348959602        0.0000000000000000                1
   31.813804210216698        58.036546042516100        0.0000000000000000                1
   31.877039507775599        57.801427147428299        0.0000000000000000                1
   31.940274805334500        57.566676787743603        0.0000000000000000                1
   32.003510102893401        57.332939020945801        0.0000000000000000                1
   32.088176769560100        57.332939020945801        0.0000000000000000                1
   32.172843436226799        57.332939020945801        0.0000000000000000                1
   32.257510102893399        57.332939020945801        0.0000000000000000                1
   32.320745400452303        57.566676787743603        0.0000000000000000                1
   32.383980698011200        57.801427147428299        0.0000000000000000                1
   32.447215995570197        58.036546042516100        0.0000000000000000                1
   32.510451293129101        58.271859348959602        0.0000000000000000                1
   32.573686590687998        58.507293708392503        0.0000000000000000                1
   32.636921888246903        58.742811065637703        0.0000000000000000                1
   32.700157185805800        58.978389054555400        0.0000000000000000                1
   32.763392483364797        59.214013376775902        0.0000000000000000                1
   32.826627780923701        59.449674318878500        0.0000000000000000                1
   32.889863078482598        59.685364971051797        0.0000000000000000                1
   32.953098376041503        59.921080236797600        0.0000000000000000                1
   33.016333673600400        60.156816245747102        0.0000000000000000                1
   33.079568971159397        60.392569987122599        0.0000000000000000                1
   33.142804268718301        60.628339071108400        0.0000000000000000                1
   33.206039566277198        60.864121567934497        0.0000000000000000                1
   33.254512641196499        61.003457152985597        0.0000000000000000                1
   33.322685666590900        61.134305907331502        0.0000000000000000                1
   33.409119051578003        61.253903788276297        0.0000000000000000                1
   33.511987606323103        61.359724329051801        0.0000000000000000                1
   33.629119084067000        61.449532047158002        0.0000000000000000                1
   33.758040051858302        61.521429698590303        0.0000000000000000                1
   33.896028121352401        61.573898380049002        0.0000000000000000                1
   34.040169436730700        61.605829632610302        0.0000000000000000                1
   34.187420205786900        61.616548869352599        0.0000000000000000                1
   0.0000000000000000        61.629995113416200        0.0000000000000000                1
   5.2824689899894999        61.629995113416200        0.0000000000000000                1
   9.6585678509430402        61.629995113416200        0.0000000000000000                1
   13.283812121969300        61.629995113416200        0.0000000000000000                1
   16.287034042267599        61.629995113416200        0.0000000000000000                1
   18.774960711001501        61.629995113416200        0.0000000000000000                1
   20.836006905144199        61.629995113416200        0.0000000000000000                1
   22.543417122565199        61.629995113416200        0.0000000000000000                1
   23.957868510815700        61.629995113416200        0.0000000000000000                1
   25.129627183283802        61.629995113416200        0.0000000000000000                1
   26.100334552875701        61.629995113416200        0.0000000000000000                1
   26.904487165115601        61.629995113416200        0.0000000000000000                1
   27.570662620283102        61.629995113416200        0.0000000000000000                1
   28.122535150836001        61.629995113416200        0.0000000000000000                1
   28.579716945236200        61.629995113416200        0.0000000000000000                1
   28.958455116751399        61.629995113416200        0.0000000000000000                1
   29.272209085784201        61.629995113416200        0.0000000000000000                1
   29.532128894474301        61.629995113416200        0.0000000000000000                1
   29.747451451692498        61.629995113416200        0.0000000000000000                1
   29.925828789997801        61.629995113416200        0.0000000000000000                1
   30.073599999999999        61.629995113416200        0.0000000000000000                1
   30.220850769056199        61.619269907880600        0.0000000000000000                1
   30.364992084434501        61.587320801102599        0.0000000000000000                1
   30.502980153928601        61.534822538343803        0.0000000000000000                1
   30.631901121719899        61.462883848620997        0.0000000000000000                1
   30.749032599463799        61.373024026433903        0.0000000000000000                1
   30.851901154208900        61.267140841281297        0.0000000000000000                1
   30.938334539195999        61.147470452454598        0.0000000000000000                1
   31.006507564590400        61.016540175439197        0.0000000000000000                1
   31.054980639509701        60.877115097294599        0.0000000000000000                1
   31.118215937068602        60.641174298853798        0.0000000000000000                1
   31.181451234627499        60.405237312254201        0.0000000000000000                1
   31.244686532186400        60.169304707477998        0.0000000000000000                1
   31.307921829745400        59.933377194088401        0.0000000000000000                1
   31.371157127304301        59.697455671102901        0.0000000000000000                1
   31.434392424863201        59.461541301396799        0.0000000000000000                1
   31.497627722422099        59.225635626737002        0.0000000000000000                1
   31.560863019980999        58.989740753404597        0.0000000000000000                1
   31.624098317539900        58.753859667814297        0.0000000000000000                1
   31.687333615098801        58.517996809555598        0.0000000000000000                1
   31.750568912657801        58.282159204015102        0.0000000000000000                1
   31.813804210216698        58.046358973427402        0.0000000000000000                1
   31.877039507775599        57.810619906916202        0.0000000000000000                1
   31.940274805334500        57.574999894069997        0.0000000000000000                1
   32.003510102893401        57.339722560319402        0.0000000000000000                1
   32.088176769560100        57.339722560319402        0.0000000000000000                1
   32.172843436226799        57.339722560319402        0.0000000000000000                1
   32.257510102893399        57.339722560319402        0.0000000000000000                1
   32.320745400452303        57.574999894069997        0.0000000000000000                1
   32.383980698011200        57.810619906916202        0.0000000000000000                1
   32.447215995570197        58.046358973427402        0.0000000000000000                1
   32.510451293129101        58.282159204015102        0.0000000000000000                1
   32.573686590687998        58.517996809555598        0.0000000000000000                1
   32.636921888246903        58.753859667814297        0.0000000000000000                1
   32.700157185805800        58.989740753404597        0.0000000000000000                1
   32.763392483364797        59.225635626737002        0.0000000000000000                1
   32.826627780923701        59.461541301396799        0.0000000000000000                1
   32.889863078482598        59.697455671102901        0.0000000000000000                1
   32.953098376041503        59.933377194088401        0.0000000000000000                1
   33.016333673600400        60.169304707477998        0.0000000000000000                1
   33.079568971159397        60.405237312254201        0.0000000000000000                1
   33.142804268718301        60.641174298853798        0.0000000000000000                1
   33.206039566277198        60.877115097294599        0.0000000000000000                1
   33.254512641196499        61.016540175439197        0.0000000000000000                1
   33.322685666590900        61.147470452454598        0.0000000000000000                1
   33.409119051578003        61.267140841281297        0.0000000000000000                1
   33.511987606323103        61.373024026433903        0.0000000000000000                1
   33.629119084067000        61.462883848620997        0.0000000000000000                1
   33.758040051858302        61.534822538343803        0.0000000000000000                1
   33.896028121352401        61.587320801102599        0.0000000000000000                1
   34.040169436730700        61.619269907880600        0.0000000000000000                1
   34.187420205786900        61.629995113416200        0.0000000000000000                1
   0.0000000000000000        61.639409090909098        0.0000000000000000                1
   5.2824689899894999        61.639409090909098        0.0000000000000000                1
   9.6585678509430402        61.639409090909098        0.0000000000000000                1
   13.283812121969300        61.639409090909098        0.0000000000000000                1
   16.287034042267599        61.639409090909098        0.0000000000000000                1
   18.774960711001501        61.639409090909098        0.0000000000000000                1
   20.836006905144199        61.639409090909098        0.0000000000000000                1
   22.543417122565199        61.639409090909098        0.0000000000000000                1
   23.957868510815700        61.639409090909098        0.0000000000000000                1
   25.129627183283802        61.639409090909098        0.0000000000000000                1
   26.100334552875701        61.639409090909098        0.0000000000000000                1
   26.904487165115601        61.639409090909098        0.0000000000000000                1
   27.570662620283102        61.639409090909098        0.0000000000000000                1
   28.122535150836001        61.639409090909098        0.0000000000000000                1
   28.579716945236200        61.639409090909098        0.0000000000000000                1
   28.958455116751399        61.639409090909098        0.0000000000000000                1
   29.272209085784201        61.639409090909098        0.0000000000000000                1
   29.532128894474301        61.639409090909098        0.0000000000000000                1
   29.747451451692498        61.639409090909098        0.0000000000000000                1
   29.925828789997801        61.639409090909098        0.0000000000000000                1
   30.073599999999999        61.639409090909098        0.0000000000000000                1
   30.220850769056199        61.628681795707301        0.0000000000000000                1
   30.364992084434501        61.596726435421601        0.0000000000000000                1
   30.502980153928601        61.544217802538299        0.0000000000000000                1
   30.631901121719899        61.472264707304603        0.0000000000000000                1
   30.749032599463799        61.382386563289899        0.0000000000000000                1
   30.851901154208900        61.276481302350597        0.0000000000000000                1
   30.938334539195999        61.156785296529002        0.0000000000000000                1
   31.006507564590400        61.025826133204902        0.0000000000000000                1
   31.054980639509701        60.886369240733302        0.0000000000000000                1
   31.118215937068602        60.650371897411603        0.0000000000000000                1
   31.181451234627499        60.414374554090003        0.0000000000000000                1
   31.244686532186400        60.178377210768403        0.0000000000000000                1
   31.307921829745400        59.942379867446803        0.0000000000000000                1
   31.371157127304301        59.706382524125203        0.0000000000000000                1
   31.434392424863201        59.470385180803603        0.0000000000000000                1
   31.497627722422099        59.234387837481997        0.0000000000000000                1
   31.560863019980999        58.998390494160297        0.0000000000000000                1
   31.624098317539900        58.762393150838697        0.0000000000000000                1
   31.687333615098801        58.526395807517098        0.0000000000000000                1
   31.750568912657801        58.290398464195498        0.0000000000000000                1
   31.813804210216698        58.054401120873898        0.0000000000000000                1
   31.877039507775599        57.818403777552298        0.0000000000000000                1
   31.940274805334500        57.582406434230698        0.0000000000000000                1
   32.003510102893401        57.346409090908999        0.0000000000000000                1
   32.088176769560100        57.346409090908999        0.0000000000000000                1
   32.172843436226799        57.346409090908999        0.0000000000000000                1
   32.257510102893399        57.346409090908999        0.0000000000000000                1
   32.320745400452303        57.582406434230698        0.0000000000000000                1
   32.383980698011200        57.818403777552298        0.0000000000000000                1
   32.447215995570197        58.054401120873898        0.0000000000000000                1
   32.510451293129101        58.290398464195498        0.0000000000000000                1
   32.573686590687998        58.526395807517098        0.0000000000000000                1
   32.636921888246903        58.762393150838697        0.0000000000000000                1
   32.700157185805800        58.998390494160297        0.0000000000000000                1
   32.763392483364797        59.234387837481997        0.0000000000000000                1
   32.826627780923701        59.470385180803603        0.0000000000000000                1
   32.889863078482598        59.706382524125203        0.0000000000000000                1
   32.953098376041503        59.942379867446803        0.0000000000000000                1
   33.016333673600400        60.178377210768403        0.0000000000000000                1
   33.079568971159397        60.414374554090003        0.0000000000000000                1
   33.142804268718301        60.650371897411603        0.0000000000000000                1
   33.206039566277198        60.886369240733302        0.0000000000000000                1
   33.254512641196499        61.025826133204902        0.0000000000000000                1
   33.322685666590900        61.156785296529002        0.0000000000000000                1
   33.409119051578003        61.276481302350597        0.0000000000000000                1
   33.511987606323103        61.382386563289899        0.0000000000000000                1
   33.629119084067000        61.472264707304603        0.0000000000000000                1
   33.758040051858302        61.544217802538299        0.0000000000000000                1
   33.896028121352401        61.596726435421601        0.0000000000000000                1
   34.040169436730700        61.628681795707301        0.0000000000000000                1
   34.187420205786900        61.639409090909098        0.0000000000000000                1
   0.0000000000000000        61.646000000000001        0.0000000000000000                1
   5.2824689899894999        61.646000000000001        0.0000000000000000                1
   9.6585678509430402        61.646000000000001        0.0000000000000000                1
   13.283812121969300        61.646000000000001        0.0000000000000000                1
   16.287034042267599        61.646000000000001        0.0000000000000000                1
   18.774960711001501        61.646000000000001        0.0000000000000000                1
   20.836006905144199        61.646000000000001        0.0000000000000000                1
   22.543417122565199        61.646000000000001        0.0000000000000000                1
   23.957868510815700        61.646000000000001        0.0000000000000000                1
   25.129627183283802        61.646000000000001        0.0000000000000000                1
   26.100334552875701        61.646000000000001        0.0000000000000000                1
   26.904487165115601        61.646000000000001        0.0000000000000000                1
   27.570662620283102        61.646000000000001        0.0000000000000000                1
   28.122535150836001        61.646000000000001        0.0000000000000000                1
   28.579716945236200        61.646000000000001        0.0000000000000000                1
   28.958455116751399        61.646000000000001        0.0000000000000000                1
   29.272209085784201        61.646000000000001        0.0000000000000000                1
   29.532128894474301        61.646000000000001        0.0000000000000000                1
   29.747451451692498        61.646000000000001        0.0000000000000000                1
   29.925828789997801        61.646000000000001        0.0000000000000000                1
   30.073599999999999        61.646000000000001        0.0000000000000000                1
   30.220850769056199        61.635272704798197        0.0000000000000000                1
   30.364992084434501        61.603317344512497        0.0000000000000000                1
   30.502980153928601        61.550808711629202        0.0000000000000000                1
   30.631901121719899        61.478855616395499        0.0000000000000000                1
   30.749032599463799        61.388977472380802        0.0000000000000000                1
   30.851901154208900        61.283072211441500        0.0000000000000000                1
   30.938334539195999        61.163376205619898        0.0000000000000000                1
   31.006507564590400        61.032417042295798        0.0000000000000000                1
   31.054980639509701        60.892960149824198        0.0000000000000000                1
   31.118215937068602        60.656962806502598        0.0000000000000000                1
   31.181451234627499        60.420965463180899        0.0000000000000000                1
   31.244686532186400        60.184968119859299        0.0000000000000000                1
   31.307921829745400        59.948970776537699        0.0000000000000000                1
   31.371157127304301        59.712973433216099        0.0000000000000000                1
   31.434392424863201        59.476976089894499        0.0000000000000000                1
   31.497627722422099        59.240978746572900        0.0000000000000000                1
   31.560863019980999        59.004981403251200        0.0000000000000000                1
   31.624098317539900        58.768984059929601        0.0000000000000000                1
   31.687333615098801        58.532986716608001        0.0000000000000000                1