 variables = x, y, z, active
 zone f = fepoint, et = brick, n =         3108 , e =         2190
   34.277420205786903        61.597343227576502        0.0000000000000000                1
   34.367420205786900        61.597343227576502        0.0000000000000000                1
   34.514670974843099        61.586636777503301        0.0000000000000000                1
   34.658812290221398        61.554743756253600        0.0000000000000000                1
   34.796800359715398        61.502338361406999        0.0000000000000000                1
   34.925721327506800        61.430528392128203        0.0000000000000000                1
   35.042852805250703        61.340831805244100        0.0000000000000000                1
   35.145721359995797        61.235144588815402        0.0000000000000000                1
   35.232154744982900        61.115700630966600        0.0000000000000000                1
   35.300327770377301        60.985024431144602        0.0000000000000000                1
   35.348800845296601        60.845877653048902        0.0000000000000000                1
   35.412036142855499        60.610427540153800        0.0000000000000000                1
   35.475271440414403        60.375008765818599        0.0000000000000000                1
   35.538506737973300        60.139625656621597        0.0000000000000000                1
   35.601742035532297        59.904283541794697        0.0000000000000000                1
   35.664977333091201        59.668989096221097        0.0000000000000000                1
   35.728212630650098        59.433750845975602        0.0000000000000000                1
   35.791447928209003        59.198579939660199        0.0000000000000000                1
   35.854683225767900        58.963491374913900        0.0000000000000000                1
   35.917918523326897        58.728506049771603        0.0000000000000000                1
   35.981153820885801        58.493654417725502        0.0000000000000000                1
   36.044389118444698        58.258983555278903        0.0000000000000000                1
   36.107624416003603        58.024572423068200        0.0000000000000000                1
   36.170859713562500        57.790570488710102        0.0000000000000000                1
   36.234095011121397        57.557323689344301        0.0000000000000000                1
   36.297330308680401        57.326057065376098        0.0000000000000000                1
   36.381996975347001        57.326057065376098        0.0000000000000000                1
   36.466663642013700        57.326057065376098        0.0000000000000000                1
   36.551330308680399        57.326057065376098        0.0000000000000000                1
   36.614565606239303        57.557323689344301        0.0000000000000000                1
   36.677800903798200        57.790570488710102        0.0000000000000000                1
   36.741036201357097        58.024572423068200        0.0000000000000000                1
   36.804271498916002        58.258983555278903        0.0000000000000000                1
   36.867506796474899        58.493654417725502        0.0000000000000000                1
   36.930742094033903        58.728506049771603        0.0000000000000000                1
   36.993977391592800        58.963491374913900        0.0000000000000000                1
   37.057212689151697        59.198579939660199        0.0000000000000000                1
   37.120447986710602        59.433750845975602        0.0000000000000000                1
   37.183683284269499        59.668989096221097        0.0000000000000000                1
   37.246918581828503        59.904283541794697        0.0000000000000000                1
   37.310153879387400        60.139625656621597        0.0000000000000000                1
   37.373389176946297        60.375008765818599        0.0000000000000000                1
   37.436624474505201        60.610427540153800        0.0000000000000000                1
   37.499859772064099        60.845877653048902        0.0000000000000000                1
   37.548332846983499        60.985024431144602        0.0000000000000000                1
   37.616505872377800        61.115700630966600        0.0000000000000000                1
   37.702939257364903        61.235144588815402        0.0000000000000000                1
   37.805807812110103        61.340831805244100        0.0000000000000000                1
   37.922939289853900        61.430528392128203        0.0000000000000000                1
   38.051860257645302        61.502338361406999        0.0000000000000000                1
   38.189848327139401        61.554743756253600        0.0000000000000000                1
   38.333989642517700        61.586636777503301        0.0000000000000000                1
   38.481240411573800        61.597343227576502        0.0000000000000000                1
   38.571240411573797        61.597343227576502        0.0000000000000000                1
   38.661240411573800        61.597343227576502        0.0000000000000000                1
   38.808491180630000        61.586636777503301        0.0000000000000000                1
   38.952632496008299        61.554743756253600        0.0000000000000000                1
   39.090620565502398        61.502338361406999        0.0000000000000000                1
   39.219541533293800        61.430528392128203        0.0000000000000000                1
   39.336673011037597        61.340831805244100        0.0000000000000000                1
   39.439541565782697        61.235144588815402        0.0000000000000000                1
   39.525974950769800        61.115700630966600        0.0000000000000000                1
   39.594147976164201        60.985024431144602        0.0000000000000000                1
   39.642621051083502        60.845877653048902        0.0000000000000000                1
   39.705856348642399        60.610427540153800        0.0000000000000000                1
   39.769091646201403        60.375008765818599        0.0000000000000000                1
   39.832326943760300        60.139625656621597        0.0000000000000000                1
   39.895562241319197        59.904283541794697        0.0000000000000000                1
   39.958797538878102        59.668989096221097        0.0000000000000000                1
   40.022032836436999        59.433750845975602        0.0000000000000000                1
   40.085268133996003        59.198579939660199        0.0000000000000000                1
   40.148503431554900        58.963491374913900        0.0000000000000000                1
   34.277420205786903        61.616548869352599        0.0000000000000000                1
   34.367420205786900        61.616548869352599        0.0000000000000000                1
   34.514670974843099        61.605829632610302        0.0000000000000000                1
   34.658812290221398        61.573898380049002        0.0000000000000000                1
   34.796800359715398        61.521429698590303        0.0000000000000000                1
   34.925721327506800        61.449532047158002        0.0000000000000000                1
   35.042852805250703        61.359724329051801        0.0000000000000000                1
   35.145721359995797        61.253903788276297        0.0000000000000000                1
   35.232154744982900        61.134305907331502        0.0000000000000000                1
   35.300327770377301        61.003457152985597        0.0000000000000000                1
   35.348800845296601        60.864121567934497        0.0000000000000000                1
   35.412036142855499        60.628339071108400        0.0000000000000000                1
   35.475271440414403        60.392569987122599        0.0000000000000000                1
   35.538506737973300        60.156816245747102        0.0000000000000000                1
   35.601742035532297        59.921080236797600        0.0000000000000000                1
   35.664977333091201        59.685364971051797        0.0000000000000000                1
   35.728212630650098        59.449674318878500        0.0000000000000000                1
   35.791447928209003        59.214013376775902        0.0000000000000000                1
   35.854683225767900        58.978389054555400        0.0000000000000000                1
   35.917918523326897        58.742811065637703        0.0000000000000000                1
   35.981153820885801        58.507293708392503        0.0000000000000000                1
   36.044389118444698        58.271859348959602        0.0000000000000000                1
   36.107624416003603        58.036546042516100        0.0000000000000000                1
   36.170859713562500        57.801427147428299        0.0000000000000000                1
   36.234095011121397        57.566676787743603        0.0000000000000000                1
   36.297330308680401        57.332939020945801        0.0000000000000000                1
   36.381996975347001        57.332939020945801        0.0000000000000000                1
   36.466663642013700        57.332939020945801        0.0000000000000000                1
   36.551330308680399        57.332939020945801        0.0000000000000000                1
   36.614565606239303        57.566676787743603        0.0000000000000000                1
   36.677800903798200        57.801427147428299        0.0000000000000000                1
   36.741036201357097        58.036546042516100        0.0000000000000000                1
   36.804271498916002        58.271859348959602        0.0000000000000000                1
   36.867506796474899        58.507293708392503        0.0000000000000000                1
   36.930742094033903        58.742811065637703        0.0000000000000000                1
   36.993977391592800        58.978389054555400        0.0000000000000000                1
   37.057212689151697        59.214013376775902        0.0000000000000000                1
   37.120447986710602        59.449674318878500        0.0000000000000000                1
   37.183683284269499        59.685364971051797        0.0000000000000000                1
   37.246918581828503        59.921080236797600        0.0000000000000000                1
   37.310153879387400        60.156816245747102        0.0000000000000000                1
   37.373389176946297        60.392569987122599        0.0000000000000000                1
   37.436624474505201        60.628339071108400        0.0000000000000000                1
   37.499859772064099        60.864121567934497        0.0000000000000000                1
   37.548332846983499        61.003457152985597        0.0000000000000000                1
   37.616505872377800        61.134305907331502        0.0000000000000000                1
   37.702939257364903        61.253903788276297        0.0000000000000000                1
   37.805807812110103        61.359724329051801        0.0000000000000000                1
   37.922939289853900        61.449532047158002        0.0000000000000000                1
   38.051860257645302        61.521429698590303        0.0000000000000000                1
   38.189848327139401        61.573898380049002        0.0000000000000000                1
   38.333989642517700        61.605829632610302        0.0000000000000000                1
   38.481240411573800        61.616548869352599        0.0000000000000000                1
   38.571240411573797        61.616548869352599        0.0000000000000000                1
   38.661240411573800        61.616548869352599        0.0000000000000000                1
   38.808491180630000        61.605829632610302        0.0000000000000000                1
   38.952632496008299        61.573898380049002        0.0000000000000000                1
   39.090620565502398        61.521429698590303        0.0000000000000000                1
   39.219541533293800        61.449532047158002        0.0000000000000000                1
   39.336673011037597        61.359724329051801        0.0000000000000000                1
   39.439541565782697        61.253903788276297        0.0000000000000000                1
   39.525974950769800        61.134305907331502        0.0000000000000000                1
   39.594147976164201        61.003457152985597        0.0000000000000000                1
   39.642621051083502        60.864121567934497        0.0000000000000000                1
   39.705856348642399        60.628339071108400        0.0000000000000000                1
   39.769091646201403        60.392569987122599        0.0000000000000000                1
   39.832326943760300        60.156816245747102        0.0000000000000000                1
   39.895562241319197        59.921080236797600        0.0000000000000000                1
   39.958797538878102        59.685364971051797        0.0000000000000000                1
   40.022032836436999        59.449674318878500        0.0000000000000000                1
   40.085268133996003        59.214013376775902        0.0000000000000000                1
   40.148503431554900        58.978389054555400        0.0000000000000000                1
   34.277420205786903        61.629995113416200        0.0000000000000000                1
   34.367420205786900        61.629995113416200        0.0000000000000000                1
   34.514670974843099        61.619269907880600        0.0000000000000000                1
   34.658812290221398        61.587320801102599        0.0000000000000000                1
   34.796800359715398        61.534822538343803        0.0000000000000000                1
   34.925721327506800        61.462883848620997        0.0000000000000000                1
   35.042852805250703        61.373024026433903        0.0000000000000000                1
   35.145721359995797        61.267140841281297        0.0000000000000000                1
   35.232154744982900        61.147470452454598        0.0000000000000000                1
   35.300327770377301        61.016540175439197        0.0000000000000000                1
   35.348800845296601        60.877115097294599        0.0000000000000000                1
   35.412036142855499        60.641174298853798        0.0000000000000000                1
   35.475271440414403        60.405237312254201        0.0000000000000000                1
   35.538506737973300        60.169304707477998        0.0000000000000000                1
   35.601742035532297        59.933377194088401        0.0000000000000000                1
   35.664977333091201        59.697455671102901        0.0000000000000000                1
   35.728212630650098        59.461541301396799        0.0000000000000000                1
   35.791447928209003        59.225635626737002        0.0000000000000000                1
   35.854683225767900        58.989740753404597        0.0000000000000000                1
   35.917918523326897        58.753859667814297        0.0000000000000000                1
   35.981153820885801        58.517996809555598        0.0000000000000000                1
   36.044389118444698        58.282159204015102        0.0000000000000000                1
   36.107624416003603        58.046358973427402        0.0000000000000000                1
   36.170859713562500        57.810619906916202        0.0000000000000000                1
   36.234095011121397        57.574999894069997        0.0000000000000000                1
   36.297330308680401        57.339722560319402        0.0000000000000000                1
   36.381996975347001        57.339722560319402        0.0000000000000000                1
   36.466663642013700        57.339722560319402        0.0000000000000000                1
   36.551330308680399        57.339722560319402        0.0000000000000000                1
   36.614565606239303        57.574999894069997        0.0000000000000000                1
   36.677800903798200        57.810619906916202        0.0000000000000000                1
   36.741036201357097        58.046358973427402        0.0000000000000000                1
   36.804271498916002        58.282159204015102        0.0000000000000000                1
   36.867506796474899        58.517996809555598        0.0000000000000000                1
   36.930742094033903        58.753859667814297        0.0000000000000000                1
   36.993977391592800        58.989740753404597        0.0000000000000000                1
   37.057212689151697        59.225635626737002        0.0000000000000000                1
   37.120447986710602        59.461541301396799        0.0000000000000000                1
   37.183683284269499        59.697455671102901        0.0000000000000000                1
   37.246918581828503        59.933377194088401        0.0000000000000000                1
   37.310153879387400        60.169304707477998        0.0000000000000000                1
   37.373389176946297        60.405237312254201        0.0000000000000000                1
   37.436624474505201        60.641174298853798        0.0000000000000000                1
   37.499859772064099        60.877115097294599        0.0000000000000000                1
   37.548332846983499        61.016540175439197        0.0000000000000000                1
   37.616505872377800        61.147470452454598        0.0000000000000000                1
   37.702939257364903        61.267140841281297        0.0000000000000000                1
   37.805807812110103        61.373024026433903        0.0000000000000000                1
   37.922939289853900        61.462883848620997        0.0000000000000000                1
   38.051860257645302        61.534822538343803        0.0000000000000000                1
   38.189848327139401        61.587320801102599        0.0000000000000000                1
   38.333989642517700        61.619269907880600        0.0000000000000000                1
   38.481240411573800        61.629995113416200        0.0000000000000000                1
   38.571240411573797        61.629995113416200        0.0000000000000000                1
   38.661240411573800        61.629995113416200        0.0000000000000000                1
   38.808491180630000        61.619269907880600        0.0000000000000000                1
   38.952632496008299        61.587320801102599        0.0000000000000000                1
   39.090620565502398        61.534822538343803        0.0000000000000000                1
   39.219541533293800        61.462883848620997        0.0000000000000000                1
   39.336673011037597        61.373024026433903        0.0000000000000000                1
   39.439541565782697        61.267140841281297        0.0000000000000000                1
   39.525974950769800        61.147470452454598        0.0000000000000000                1
   39.594147976164201        61.016540175439197        0.0000000000000000                1
   39.642621051083502        60.877115097294599        0.0000000000000000                1
   39.705856348642399        60.641174298853798        0.0000000000000000                1
   39.769091646201403        60.405237312254201        0.0000000000000000                1
   39.832326943760300        60.169304707477998        0.0000000000000000                1
   39.895562241319197        59.933377194088401        0.0000000000000000                1
   39.958797538878102        59.697455671102901        0.0000000000000000                1
   40.022032836436999        59.461541301396799        0.0000000000000000                1
   40.085268133996003        59.225635626737002        0.0000000000000000                1
   40.148503431554900        58.989740753404597        0.0000000000000000                1
   34.277420205786903        61.639409090909098        0.0000000000000000                1
   34.367420205786900        61.639409090909098        0.0000000000000000                1
   34.514670974843099        61.628681795707301        0.0000000000000000                1
   34.658812290221398        61.596726435421601        0.0000000000000000                1
   34.796800359715398        61.544217802538299        0.0000000000000000                1
   34.925721327506800        61.472264707304603        0.0000000000000000                1
   35.042852805250703        61.382386563289899        0.0000000000000000                1
   35.145721359995797        61.276481302350597        0.0000000000000000                1
   35.232154744982900        61.156785296529002        0.0000000000000000                1
   35.300327770377301        61.025826133204902        0.0000000000000000                1
   35.348800845296601        60.886369240733302        0.0000000000000000                1
   35.412036142855499        60.650371897411603        0.0000000000000000                1
   35.475271440414403        60.414374554090003        0.0000000000000000                1
   35.538506737973300        60.178377210768403        0.0000000000000000                1
   35.601742035532297        59.942379867446803        0.0000000000000000                1
   35.664977333091201        59.706382524125203        0.0000000000000000                1
   35.728212630650098        59.470385180803603        0.0000000000000000                1
   35.791447928209003        59.234387837481997        0.0000000000000000                1
   35.854683225767900        58.998390494160297        0.0000000000000000                1
   35.917918523326897        58.762393150838697        0.0000000000000000                1
   35.981153820885801        58.526395807517098        0.0000000000000000                1
   36.044389118444698        58.290398464195498        0.0000000000000000                1
   36.107624416003603        58.054401120873898        0.0000000000000000                1
   36.170859713562500        57.818403777552298        0.0000000000000000                1
   36.234095011121397        57.582406434230698        0.0000000000000000                1
   36.297330308680401        57.346409090908999        0.0000000000000000                1
   36.381996975347001        57.346409090908999        0.0000000000000000                1
   36.466663642013700        57.346409090908999        0.0000000000000000                1
   36.551330308680399        57.346409090908999        0.0000000000000000                1
   36.614565606239303        57.582406434230698        0.0000000000000000                1
   36.677800903798200        57.818403777552298        0.0000000000000000                1
   36.741036201357097        58.054401120873898        0.0000000000000000                1
   36.804271498916002        58.290398464195498        0.0000000000000000                1
   36.867506796474899        58.526395807517098        0.0000000000000000                1
   36.930742094033903        58.762393150838697        0.0000000000000000                1
   36.993977391592800        58.998390494160297        0.0000000000000000                1
   37.057212689151697        59.234387837481997        0.0000000000000000                1
   37.120447986710602        59.470385180803603        0.0000000000000000                1
   37.183683284269499        59.706382524125203        0.0000000000000000                1
   37.246918581828503        59.942379867446803        0.0000000000000000                1
   37.310153879387400        60.178377210768403        0.0000000000000000                1
   37.373389176946297        60.414374554090003        0.0000000000000000                1
   37.436624474505201        60.650371897411603        0.0000000000000000                1
   37.499859772064099        60.886369240733302        0.0000000000000000                1
   37.548332846983499        61.025826133204902        0.0000000000000000                1
   37.616505872377800        61.156785296529002        0.0000000000000000                1
   37.702939257364903        61.276481302350597        0.0000000000000000                1
   37.805807812110103        61.382386563289899        0.0000000000000000                1
   37.922939289853900        61.472264707304603        0.0000000000000000                1
   38.051860257645302        61.544217802538299        0.0000000000000000                1
   38.189848327139401        61.596726435421601        0.0000000000000000                1
   38.333989642517700        61.628681795707301        0.0000000000000000                1
   38.481240411573800        61.639409090909098        0.0000000000000000                1
   38.571240411573797        61.639409090909098        0.0000000000000000                1
   38.661240411573800        61.639409090909098        0.0000000000000000                1
   38.808491180630000        61.628681795707301        0.0000000000000000                1
   38.952632496008299        61.596726435421601        0.0000000000000000                1
   39.090620565502398        61.544217802538299        0.0000000000000000                1
   39.219541533293800        61.472264707304603        0.0000000000000000                1
   39.336673011037597        61.382386563289899        0.0000000000000000                1
   39.439541565782697        61.276481302350597        0.0000000000000000                1
   39.525974950769800        61.156785296529002        0.0000000000000000                1
   39.594147976164201        61.025826133204902        0.0000000000000000                1
   39.642621051083502        60.886369240733302        0.0000000000000000                1
   39.705856348642399        60.650371897411603        0.0000000000000000                1
   39.769091646201403        60.414374554090003        0.0000000000000000                1
   39.832326943760300        60.178377210768403        0.0000000000000000                1
   39.895562241319197        59.942379867446803        0.0000000000000000                1
   39.958797538878102        59.706382524125203        0.0000000000000000                1
   40.022032836436999        59.470385180803603        0.0000000000000000                1
   40.085268133996003        59.234387837481997        0.0000000000000000                1
   40.148503431554900        58.998390494160297        0.0000000000000000                1
   34.277420205786903        61.646000000000001        0.0000000000000000                1
   34.367420205786900        61.646000000000001        0.0000000000000000                1
   34.514670974843099        61.635272704798197        0.0000000000000000                1
   34.658812290221398        61.603317344512497        0.0000000000000000                1
   34.796800359715398        61.550808711629202        0.0000000000000000                1
   34.925721327506800        61.478855616395499        0.0000000000000000                1
   35.042852805250703        61.388977472380802        0.0000000000000000                1
   35.145721359995797        61.283072211441500        0.0000000000000000                1
   35.232154744982900        61.163376205619898        0.0000000000000000                1
   35.300327770377301        61.032417042295798        0.0000000000000000                1
   35.348800845296601        60.892960149824198        0.0000000000000000                1
   35.412036142855499        60.656962806502598        0.0000000000000000                1
   35.475271440414403        60.420965463180899        0.0000000000000000                1
   35.538506737973300        60.184968119859299        0.0000000000000000                1
   35.601742035532297        59.948970776537699        0.0000000000000000                1
   35.664977333091201        59.712973433216099        0.0000000000000000                1
   35.728212630650098        59.476976089894499        0.0000000000000000                1
   35.791447928209003        59.240978746572900        0.0000000000000000                1
   35.854683225767900        59.004981403251200        0.0000000000000000                1
   35.917918523326897        58.768984059929601        0.0000000000000000                1
   35.981153820885801        58.532986716608001        0.0000000000000000                1
   36.044389118444698        58.296989373286401        0.0000000000000000                1
   36.107624416003603        58.060992029964801        0.0000000000000000                1
   36.170859713562500        57.824994686643201        0.0000000000000000                1
   36.234095011121397        57.588997343321601        0.0000000000000000                1
   36.297330308680401        57.353000000000002        0.0000000000000000                1
   36.381996975347001        57.353000000000002        0.0000000000000000                1
   36.466663642013700        57.353000000000002        0.0000000000000000                1
   36.551330308680399        57.353000000000002        0.0000000000000000                1
   36.614565606239303        57.588997343321601        0.0000000000000000                1
   36.677800903798200        57.824994686643201        0.0000000000000000                1
   36.741036201357097        58.060992029964801        0.0000000000000000                1
   36.804271498916002        58.296989373286401        0.0000000000000000                1
   36.867506796474899        58.532986716608001        0.0000000000000000                1
   36.930742094033903        58.768984059929601        0.0000000000000000                1
   36.993977391592800        59.004981403251200        0.0000000000000000                1
   37.057212689151697        59.240978746572900        0.0000000000000000                1
   37.120447986710602        59.476976089894499        0.0000000000000000                1
   37.183683284269499        59.712973433216099        0.0000000000000000                1
   37.246918581828503        59.948970776537699        0.0000000000000000                1