 variables = x, y, z, bc
 zone f = fepoint, et = quadrilateral, n =   352 , e =   88
   0.000000000000000  57.1500000000000  0.000000000000000 -100
   15.0368000000000  57.1500000000000  0.000000000000000 -100
   15.0368000000000  59.3980000000000  0.000000000000000 -100
   0.000000000000000  59.3980000000000  0.000000000000000 -100
   15.0368000000000  57.1500000000000  0.000000000000000 -100
   30.0736000000000  57.1500000000000  0.000000000000000 -100
   30.0736000000000  59.3980000000000  0.000000000000000 -100
   15.0368000000000  59.3980000000000  0.000000000000000 -100
   30.0736000000000  57.1500000000000  0.000000000000000 -100
   30.6921016118729  57.1500000000000  0.000000000000000 -100
   30.6921016118729  59.2930234968679  0.000000000000000 -100
   30.0736000000000  59.3980000000000  0.000000000000000 -100
   30.6921016118729  57.1500000000000  0.000000000000000 -100
   31.0549806395097  57.1500000000000  0.000000000000000 -100
   31.0549806395097  59.0214800749121  0.000000000000000 -100
   30.6921016118729  59.2930234968679  0.000000000000000 -100
   31.0549806395097  57.1500000000000  0.000000000000000 -100
   31.5292453712016  57.1500000000000  0.000000000000000 -100
   31.5292453712016  58.1364900374560  0.000000000000000 -100
   31.0549806395097  59.0214800749121  0.000000000000000 -100
   31.5292453712016  57.1500000000000  0.000000000000000 -100
   32.0035101028934  57.1500000000000  0.000000000000000 -100
   32.0035101028934  57.2515000000000  0.000000000000000 -100
   31.5292453712016  58.1364900374560  0.000000000000000 -100
   32.0035101028934  57.1500000000000  0.000000000000000 -100
   32.1305101028934  57.1500000000000  0.000000000000000 -100
   32.1305101028934  57.2515000000000  0.000000000000000 -100
   32.0035101028934  57.2515000000000  0.000000000000000 -100
   32.1305101028934  57.1500000000000  0.000000000000000 -100
   32.2575101028934  57.1500000000000  0.000000000000000 -100
   32.2575101028934  57.2515000000000  0.000000000000000 -100
   32.1305101028934  57.2515000000000  0.000000000000000 -100
   32.2575101028934  57.1500000000000  0.000000000000000 -100
   32.7317748345853  57.1500000000000  0.000000000000000 -100
   32.7317748345853  58.1364900374560  0.000000000000000 -100
   32.2575101028934  57.2515000000000  0.000000000000000 -100
   32.7317748345853  57.1500000000000  0.000000000000000 -100
   33.2060395662772  57.1500000000000  0.000000000000000 -100
   33.2060395662772  59.0214800749121  0.000000000000000 -100
   32.7317748345853  58.1364900374560  0.000000000000000 -100
   33.2060395662772  57.1500000000000  0.000000000000000 -100
   33.5689185939140  57.1500000000000  0.000000000000000 -100
   33.5689185939140  59.2930234968679  0.000000000000000 -100
   33.2060395662772  59.0214800749121  0.000000000000000 -100
   33.5689185939140  57.1500000000000  0.000000000000000 -100
   34.1874202057869  57.1500000000000  0.000000000000000 -100
   34.1874202057869  59.3980000000000  0.000000000000000 -100
   33.5689185939140  59.2930234968679  0.000000000000000 -100
   34.1874202057869  57.1500000000000  0.000000000000000 -100
   49.2242202057869  57.1500000000000  0.000000000000000 -100
   49.2242202057869  59.3980000000000  0.000000000000000 -100
   34.1874202057869  59.3980000000000  0.000000000000000 -100
   49.2242202057869  57.1500000000000  0.000000000000000 -100
   64.2610202057869  57.1500000000000  0.000000000000000 -100
   64.2610202057869  59.3980000000000  0.000000000000000 -100
   49.2242202057869  59.3980000000000  0.000000000000000 -100
   0.000000000000000  59.3980000000000  0.000000000000000 -100
   15.0368000000000  59.3980000000000  0.000000000000000 -100
   15.0368000000000  61.6460000000000  0.000000000000000 -100
   0.000000000000000  61.6460000000000  0.000000000000000 -100
   15.0368000000000  59.3980000000000  0.000000000000000 -100
   30.0736000000000  59.3980000000000  0.000000000000000 -100
   30.0736000000000  61.6460000000000  0.000000000000000 -100
   15.0368000000000  61.6460000000000  0.000000000000000 -100
   30.0736000000000  59.3980000000000  0.000000000000000 -100
   30.6921016118729  59.2930234968679  0.000000000000000 -100
   30.6921016118729  61.4360469937359  0.000000000000000 -100
   30.0736000000000  61.6460000000000  0.000000000000000 -100
   30.6921016118729  59.2930234968679  0.000000000000000 -100
   31.0549806395097  59.0214800749121  0.000000000000000 -100
   31.0549806395097  60.8929601498242  0.000000000000000 -100
   30.6921016118729  61.4360469937359  0.000000000000000 -100
   31.0549806395097  59.0214800749121  0.000000000000000 -100
   31.5292453712016  58.1364900374560  0.000000000000000 -100
   31.5292453712016  59.1229800749121  0.000000000000000 -100
   31.0549806395097  60.8929601498242  0.000000000000000 -100
   31.5292453712016  58.1364900374560  0.000000000000000 -100
   32.0035101028934  57.2515000000000  0.000000000000000 -100
   32.0035101028934  57.3530000000000  0.000000000000000 -100
   31.5292453712016  59.1229800749121  0.000000000000000 -100
   32.0035101028934  57.2515000000000  0.000000000000000 -100
   32.1305101028934  57.2515000000000  0.000000000000000 -100
   32.1305101028934  57.3530000000000  0.000000000000000 -100
   32.0035101028934  57.3530000000000  0.000000000000000 -100
   32.1305101028934  57.2515000000000  0.000000000000000 -100
   32.2575101028934  57.2515000000000  0.000000000000000 -100
   32.2575101028934  57.3530000000000  0.000000000000000 -100
   32.1305101028934  57.3530000000000  0.000000000000000 -100
   32.2575101028934  57.2515000000000  0.000000000000000 -100
   32.7317748345853  58.1364900374560  0.000000000000000 -100
   32.7317748345853  59.1229800749121  0.000000000000000 -100
   32.2575101028934  57.3530000000000  0.000000000000000 -100
   32.7317748345853  58.1364900374560  0.000000000000000 -100
   33.2060395662772  59.0214800749121  0.000000000000000 -100
   33.2060395662772  60.8929601498242  0.000000000000000 -100
   32.7317748345853  59.1229800749121  0.000000000000000 -100
   33.2060395662772  59.0214800749121  0.000000000000000 -100
   33.5689185939140  59.2930234968679  0.000000000000000 -100
   33.5689185939140  61.4360469937359  0.000000000000000 -100
   33.2060395662772  60.8929601498242  0.000000000000000 -100
   33.5689185939140  59.2930234968679  0.000000000000000 -100
   34.1874202057869  59.3980000000000  0.000000000000000 -100
   34.1874202057869  61.6460000000000  0.000000000000000 -100
   33.5689185939140  61.4360469937359  0.000000000000000 -100
   34.1874202057869  59.3980000000000  0.000000000000000 -100
   49.2242202057869  59.3980000000000  0.000000000000000 -100
   49.2242202057869  61.6460000000000  0.000000000000000 -100
   34.1874202057869  61.6460000000000  0.000000000000000 -100
   49.2242202057869  59.3980000000000  0.000000000000000 -100
   64.2610202057869  59.3980000000000  0.000000000000000 -100
   64.2610202057869  61.6460000000000  0.000000000000000 -100
   49.2242202057869  61.6460000000000  0.000000000000000 -100
   0.000000000000000  57.1151857641413  1.99450623654793 -101
   15.0368000000000  57.1151857641413  1.99450623654793 -101
   15.0368000000000  59.3618163432802  2.07296030513515 -101
   0.000000000000000  59.3618163432802  2.07296030513515 -101
   15.0368000000000  57.1151857641413  1.99450623654793 -102
   30.0736000000000  57.1151857641413  1.99450623654793 -102
   30.0736000000000  59.3618163432802  2.07296030513515 -102
   15.0368000000000  59.3618163432802  2.07296030513515 -102
   30.0736000000000  57.1151857641413  1.99450623654793 -103
   30.6921016118729  57.1151857641413  1.99450623654793 -103
   30.6921016118729  59.2569037889975  2.06929667801026 -103
   30.0736000000000  59.3618163432802  2.07296030513515 -103
   30.6921016118729  57.1151857641413  1.99450623654793 -104
   31.0549806395097  57.1151857641413  1.99450623654793 -104
   31.0549806395097  58.9855257839575  2.05981994925112 -104
   30.6921016118729  59.2569037889975  2.06929667801026 -104
   31.0549806395097  57.1151857641413  1.99450623654793 -105
   31.5292453712016  57.1151857641413  1.99450623654793 -105
   31.5292453712016  58.1010748585206  2.02893424235718 -105
   31.0549806395097  58.9855257839575  2.05981994925112 -105
   31.5292453712016  57.1151857641413  1.99450623654793 -106
   32.0035101028934  57.1151857641413  1.99450623654793 -106
   32.0035101028934  57.2166239330838  1.99804853546323 -106
   31.5292453712016  58.1010748585206  2.02893424235718 -106
   32.0035101028934  57.1151857641413  1.99450623654793 -107
   32.1305101028934  57.1151857641413  1.99450623654793 -107
   32.1305101028934  57.2166239330838  1.99804853546323 -107
   32.0035101028934  57.2166239330838  1.99804853546323 -107
   32.1305101028934  57.1151857641413  1.99450623654793 -108
   32.2575101028934  57.1151857641413  1.99450623654793 -108
   32.2575101028934  57.2166239330838  1.99804853546323 -108
   32.1305101028934  57.2166239330838  1.99804853546323 -108
   32.2575101028934  57.1151857641413  1.99450623654793 -109
   32.7317748345853  57.1151857641413  1.99450623654793 -109
   32.7317748345853  58.1010748585206  2.02893424235718 -109
   32.2575101028934  57.2166239330838  1.99804853546323 -109
   32.7317748345853  57.1151857641413  1.99450623654793 -110
   33.2060395662772  57.1151857641413  1.99450623654793 -110
   33.2060395662772  58.9855257839575  2.05981994925112 -110
   32.7317748345853  58.1010748585206  2.02893424235718 -110
   33.2060395662772  57.1151857641413  1.99450623654793 -111
   33.5689185939140  57.1151857641413  1.99450623654793 -111
   33.5689185939140  59.2569037889975  2.06929667801026 -111
   33.2060395662772  58.9855257839575  2.05981994925112 -111
   33.5689185939140  57.1151857641413  1.99450623654793 -112
   34.1874202057869  57.1151857641413  1.99450623654793 -112
   34.1874202057869  59.3618163432802  2.07296030513515 -112
   33.5689185939140  59.2569037889975  2.06929667801026 -112
   34.1874202057869  57.1151857641413  1.99450623654793 -113
   49.2242202057869  57.1151857641413  1.99450623654793 -113
   49.2242202057869  59.3618163432802  2.07296030513515 -113
   34.1874202057869  59.3618163432802  2.07296030513515 -113
   49.2242202057869  57.1151857641413  1.99450623654793 -114
   64.2610202057869  57.1151857641413  1.99450623654793 -114
   64.2610202057869  59.3618163432802  2.07296030513515 -114
   49.2242202057869  59.3618163432802  2.07296030513515 -114
   0.000000000000000  59.3618163432802  2.07296030513515 -115
   15.0368000000000  59.3618163432802  2.07296030513515 -115
   15.0368000000000  61.6084469224192  2.15141437372237 -115
   0.000000000000000  61.6084469224192  2.15141437372237 -115
   15.0368000000000  59.3618163432802  2.07296030513515 -116
   30.0736000000000  59.3618163432802  2.07296030513515 -116
   30.0736000000000  61.6084469224192  2.15141437372237 -116
   15.0368000000000  61.6084469224192  2.15141437372237 -116
   30.0736000000000  59.3618163432802  2.07296030513515 -117
   30.6921016118729  59.2569037889975  2.06929667801026 -117
   30.6921016118729  61.3986218138537  2.14408711947258 -117
   30.0736000000000  61.6084469224192  2.15141437372237 -117
   30.6921016118729  59.2569037889975  2.06929667801026 -118
   31.0549806395097  58.9855257839575  2.05981994925112 -118
   31.0549806395097  60.8558658037736  2.12513366195431 -118
   30.6921016118729  61.3986218138537  2.14408711947258 -118
   31.0549806395097  58.9855257839575  2.05981994925112 -119
   31.5292453712016  58.1010748585206  2.02893424235718 -119
   31.5292453712016  59.0869639528999  2.06336224816642 -119
   31.0549806395097  60.8558658037736  2.12513366195431 -119
   31.5292453712016  58.1010748585206  2.02893424235718 -120
   32.0035101028934  57.2166239330838  1.99804853546323 -120
   32.0035101028934  57.3180621020262  2.00159083437854 -120
   31.5292453712016  59.0869639528999  2.06336224816642 -120
   32.0035101028934  57.2166239330838  1.99804853546323 -121
   32.1305101028934  57.2166239330838  1.99804853546323 -121
   32.1305101028934  57.3180621020262  2.00159083437854 -121
   32.0035101028934  57.3180621020262  2.00159083437854 -121
   32.1305101028934  57.2166239330838  1.99804853546323 -122
   32.2575101028934  57.2166239330838  1.99804853546323 -122
   32.2575101028934  57.3180621020262  2.00159083437854 -122
   32.1305101028934  57.3180621020262  2.00159083437854 -122
   32.2575101028934  57.2166239330838  1.99804853546323 -123
   32.7317748345853  58.1010748585206  2.02893424235718 -123
   32.7317748345853  59.0869639528999  2.06336224816642 -123
   32.2575101028934  57.3180621020262  2.00159083437854 -123
   32.7317748345853  58.1010748585206  2.02893424235718 -124
   33.2060395662772  58.9855257839575  2.05981994925112 -124
   33.2060395662772  60.8558658037736  2.12513366195431 -124
   32.7317748345853  59.0869639528999  2.06336224816642 -124
   33.2060395662772  58.9855257839575  2.05981994925112 -125
   33.5689185939140  59.2569037889975  2.06929667801026 -125
   33.5689185939140  61.3986218138538  2.14408711947258 -125
   33.2060395662772  60.8558658037736  2.12513366195431 -125
   33.5689185939140  59.2569037889975  2.06929667801026 -126
   34.1874202057869  59.3618163432802  2.07296030513515 -126
   34.1874202057869  61.6084469224192  2.15141437372237 -126
   33.5689185939140  61.3986218138538  2.14408711947258 -126
   34.1874202057869  59.3618163432802  2.07296030513515 -127
   49.2242202057869  59.3618163432802  2.07296030513515 -127
   49.2242202057869  61.6084469224192  2.15141437372237 -127
   34.1874202057869  61.6084469224192  2.15141437372237 -127
   49.2242202057869  59.3618163432802  2.07296030513515 -128
   64.2610202057869  59.3618163432802  2.07296030513515 -128
   64.2610202057869  61.6084469224192  2.15141437372237 -128
   49.2242202057869  61.6084469224192  2.15141437372237 -128
   0.000000000000000  57.1500000000000  0.000000000000000 -4
   0.000000000000000  57.1151857641413  1.99450623654793 -4
   15.0368000000000  57.1151857641413  1.99450623654793 -4
   15.0368000000000  57.1500000000000  0.000000000000000 -4
   15.0368000000000  57.1500000000000  0.000000000000000 -4
   15.0368000000000  57.1151857641413  1.99450623654793 -4
   30.0736000000000  57.1151857641413  1.99450623654793 -4
   30.0736000000000  57.1500000000000  0.000000000000000 -4
   30.0736000000000  57.1500000000000  0.000000000000000 -4
   30.0736000000000  57.1151857641413  1.99450623654793 -4
   30.6921016118729  57.1151857641413  1.99450623654793 -4
   30.6921016118729  57.1500000000000  0.000000000000000 -4
   30.6921016118729  57.1500000000000  0.000000000000000 -4
   30.6921016118729  57.1151857641413  1.99450623654793 -4
   31.0549806395097  57.1151857641413  1.99450623654793 -4
   31.0549806395097  57.1500000000000  0.000000000000000 -4
   31.0549806395097  57.1500000000000  0.000000000000000 -4
   31.0549806395097  57.1151857641413  1.99450623654793 -4
   31.5292453712016  57.1151857641413  1.99450623654793 -4
   31.5292453712016  57.1500000000000  0.000000000000000 -4
   31.5292453712016  57.1500000000000  0.000000000000000 -4
   31.5292453712016  57.1151857641413  1.99450623654793 -4
   32.0035101028934  57.1151857641413  1.99450623654793 -4
   32.0035101028934  57.1500000000000  0.000000000000000 -4
   32.0035101028934  57.1500000000000  0.000000000000000 -4
   32.0035101028934  57.1151857641413  1.99450623654793 -4
   32.1305101028934  57.1151857641413  1.99450623654793 -4
   32.1305101028934  57.1500000000000  0.000000000000000 -4
   32.1305101028934  57.1500000000000  0.000000000000000 -4
   32.1305101028934  57.1151857641413  1.99450623654793 -4
   32.2575101028934  57.1151857641413  1.99450623654793 -4
   32.2575101028934  57.1500000000000  0.000000000000000 -4
   32.2575101028934  57.1500000000000  0.000000000000000 -4
   32.2575101028934  57.1151857641413  1.99450623654793 -4
   32.7317748345853  57.1151857641413  1.99450623654793 -4
   32.7317748345853  57.1500000000000  0.000000000000000 -4
   32.7317748345853  57.1500000000000  0.000000000000000 -4
   32.7317748345853  57.1151857641413  1.99450623654793 -4
   33.2060395662772  57.1151857641413  1.99450623654793 -4
   33.2060395662772  57.1500000000000  0.000000000000000 -4
   33.2060395662772  57.1500000000000  0.000000000000000 -4
   33.2060395662772  57.1151857641413  1.99450623654793 -4
   33.5689185939140  57.1151857641413  1.99450623654793 -4
   33.5689185939140  57.1500000000000  0.000000000000000 -4
   33.5689185939140  57.1500000000000  0.000000000000000 -4
   33.5689185939140  57.1151857641413  1.99450623654793 -4
   34.1874202057869  57.1151857641413  1.99450623654793 -4
   34.1874202057869  57.1500000000000  0.000000000000000 -4
   34.1874202057869  57.1500000000000  0.000000000000000 -4
   34.1874202057869  57.1151857641413  1.99450623654793 -4
   49.2242202057869  57.1151857641413  1.99450623654793 -4
   49.2242202057869  57.1500000000000  0.000000000000000 -4
   49.2242202057869  57.1500000000000  0.000000000000000 -4
   49.2242202057869  57.1151857641413  1.99450623654793 -4
   64.2610202057869  57.1151857641413  1.99450623654793 -4
   64.2610202057869  57.1500000000000  0.000000000000000 -4
   0.000000000000000  61.6460000000000  0.000000000000000 -3
   0.000000000000000  61.6084469224192  2.15141437372237 -3
   15.0368000000000  61.6084469224192  2.15141437372237 -3
   15.0368000000000  61.6460000000000  0.000000000000000 -3
   15.0368000000000  61.6460000000000  0.000000000000000 -3
   15.0368000000000  61.6084469224192  2.15141437372237 -3
   30.0736000000000  61.6084469224192  2.15141437372237 -3
   30.0736000000000  61.6460000000000  0.000000000000000 -3
   30.0736000000000  61.6460000000000  0.000000000000000 -3
   30.0736000000000  61.6084469224192  2.15141437372237 -3
   30.6921016118729  61.3986218138537  2.14408711947258 -3
   30.6921016118729  61.4360469937359  0.000000000000000 -3
   30.6921016118729  61.4360469937359  0.000000000000000 -3
   30.6921016118729  61.3986218138537  2.14408711947258 -3
   31.0549806395097  60.8558658037736  2.12513366195431 -3
   31.0549806395097  60.8929601498242  0.000000000000000 -3
   31.0549806395097  60.8929601498242  0.000000000000000 -3
   31.0549806395097  60.8558658037736  2.12513366195431 -3
   31.5292453712016  59.0869639528999  2.06336224816642 -3
   31.5292453712016  59.1229800749121  0.000000000000000 -3
   31.5292453712016  59.1229800749121  0.000000000000000 -3
   31.5292453712016  59.0869639528999  2.06336224816642 -3
   32.0035101028934  57.3180621020262  2.00159083437854 -3
   32.0035101028934  57.3530000000000  0.000000000000000 -3
   32.0035101028934  57.3530000000000  0.000000000000000 -3
   32.0035101028934  57.3180621020262  2.00159083437854 -3
   32.1305101028934  57.3180621020262  2.00159083437854 -3
   32.1305101028934  57.3530000000000  0.000000000000000 -3
   32.1305101028934  57.3530000000000  0.000000000000000 -3
   32.1305101028934  57.3180621020262  2.00159083437854 -3
   32.2575101028934  57.3180621020262  2.00159083437854 -3
   32.2575101028934  57.3530000000000  0.000000000000000 -3
   32.2575101028934  57.3530000000000  0.000000000000000 -3
   32.2575101028934  57.3180621020262  2.00159083437854 -3
   32.7317748345853  59.0869639528999  2.06336224816642 -3
   32.7317748345853  59.1229800749121  0.000000000000000 -3
   32.7317748345853  59.1229800749121  0.000000000000000 -3
   32.7317748345853  59.0869639528999  2.06336224816642 -3
   33.2060395662772  60.8558658037736  2.12513366195431 -3
   33.2060395662772  60.8929601498242  0.000000000000000 -3
   33.2060395662772  60.8929601498242  0.000000000000000 -3
   33.2060395662772  60.8558658037736  2.12513366195431 -3
   33.5689185939140  61.3986218138538  2.14408711947258 -3
   33.5689185939140  61.4360469937359  0.000000000000000 -3
   33.5689185939140  61.4360469937359  0.000000000000000 -3
   33.5689185939140  61.3986218138538  2.14408711947258 -3
   34.1874202057869  61.6084469224192  2.15141437372237 -3
   34.1874202057869  61.6460000000000  0.000000000000000 -3
   34.1874202057869  61.6460000000000  0.000000000000000 -3
   34.1874202057869  61.6084469224192  2.15141437372237 -3
   49.2242202057869  61.6084469224192  2.15141437372237 -3
   49.2242202057869  61.6460000000000  0.000000000000000 -3
   49.2242202057869  61.6460000000000  0.000000000000000 -3
   49.2242202057869  61.6084469224192  2.15141437372237 -3
   64.2610202057869  61.6084469224192  2.15141437372237 -3
   64.2610202057869  61.6460000000000  0.000000000000000 -3
   0.000000000000000  57.1500000000000  0.000000000000000 -1
   0.000000000000000  59.3980000000000  0.000000000000000 -1
   0.000000000000000  59.3618163432802  2.07296030513515 -1
   0.000000000000000  57.1151857641413  1.99450623654793 -1
   0.000000000000000  59.3980000000000  0.000000000000000 -1
   0.000000000000000  61.6460000000000  0.000000000000000 -1
   0.000000000000000  61.6084469224192  2.15141437372237 -1
   0.000000000000000  59.3618163432802  2.07296030513515 -1
   64.2610202057869  57.1500000000000  0.000000000000000 -2
   64.2610202057869  59.3980000000000  0.000000000000000 -2
   64.2610202057869  59.3618163432802  2.07296030513515 -2
   64.2610202057869  57.1151857641413  1.99450623654793 -2
   64.2610202057869  59.3980000000000  0.000000000000000 -2
   64.2610202057869  61.6460000000000  0.000000000000000 -2
   64.2610202057869  61.6084469224192  2.15141437372237 -2
   64.2610202057869  59.3618163432802  2.07296030513515 -2
   1  2  3  4
   5  6  7  8
   9  10  11  12
   13  14  15  16
   17  18  19  20
   21  22  23  24
   25  26  27  28
   29  30  31  32
   33  34  35  36
   37  38  39  40
   41  42  43  44
   45  46  47  48
   49  50  51  52
   53  54  55  56
   57  58  59  60
   61  62  63  64
   65  66  67  68
   69  70  71  72
   73  74  75  76
   77  78  79  80
   81  82  83  84
   85  86  87  88
   89  90  91  92
   93  94  95  96
   97  98  99  100
   101  102  103  104
   105  106  107  108
   109  110  111  112
   113  114  115  116
   117  118  119  120
   121  122  123  124
   125  126  127  128
   129  130  131  132
   133  134  135  136
   137  138  139  140
   141  142  143  144
   145  146  147  148
   149  150  151  152
   153  154  155  156
   157  158  159  160
   161  162  163  164
   165  166  167  168
   169  170  171  172
   173  174  175  176
   177  178  179  180
   181  182  183  184
   185  186  187  188
   189  190  191  192
   193  194  195  196
   197  198  199  200
   201  202  203  204
   205  206  207  208
   209  210  211  212
   213  214  215  216
   217  218  219  220
   221  222  223  224
   225  226  227  228
   229  230  231  232
   233  234  235  236
   237  238  239  240
   241  242  243  244
   245  246  247  248
   249  250  251  252
   253  254  255  256
   257  258  259  260
   261  262  263  264
   265  266  267  268
   269  270  271  272
   273  274  275  276
   277  278  279  280
   281  282  283  284
   285  286  287  288
   289  290  291  292
   293  294  295  296
   297  298  299  300
   301  302  303  304
   305  306  307  308
   309  310  311  312
   313  314  315  316
   317  318  319  320
   321  322  323  324
   325  326  327  328
   329  330  331  332
   333  334  335  336
   337  338  339  340
   341  342  343  344
   345  346  347  348
   349  350  351  352
