 variables = "x", "y", "z", "cell# or BCID"
 Zone T="Cells", nodes=  90 , elements=  28
 datapacking=block, zonetype=febrick
 varlocation=([1-3]=nodal)
 varlocation=([4]=cellcentered)
  0.0000000000000        15.03680000000        30.07360000000        30.69210161187        31.05498063951        31.52924537120        32.00351010289        32.13051010289        32.25751010289        32.73177483459        33.20603956628        33.56891859391        34.18742020579        49.22422020579        64.26102020579       0.0000000000000        15.03680000000        30.07360000000        30.69210161187        31.05498063951        31.52924537120        32.00351010289        32.13051010289        32.25751010289        32.73177483459        33.20603956628        33.56891859391        34.18742020579        49.22422020579        64.26102020579    
  0.0000000000000        15.03680000000        30.07360000000        30.69210161187        31.05498063951        31.52924537120        32.00351010289        32.13051010289        32.25751010289        32.73177483459        33.20603956628        33.56891859391        34.18742020579        49.22422020579        64.26102020579       0.0000000000000        15.03680000000        30.07360000000        30.69210161187        31.05498063951        31.52924537120        32.00351010289        32.13051010289        32.25751010289        32.73177483459        33.20603956628        33.56891859391        34.18742020579        49.22422020579        64.26102020579    
  0.0000000000000        15.03680000000        30.07360000000        30.69210161187        31.05498063951        31.52924537120        32.00351010289        32.13051010289        32.25751010289        32.73177483459        33.20603956628        33.56891859391        34.18742020579        49.22422020579        64.26102020579       0.0000000000000        15.03680000000        30.07360000000        30.69210161187        31.05498063951        31.52924537120        32.00351010289        32.13051010289        32.25751010289        32.73177483459        33.20603956628        33.56891859391        34.18742020579        49.22422020579        64.26102020579    
   57.15000000000        57.15000000000        57.15000000000        57.15000000000        57.15000000000        57.15000000000        57.15000000000        57.15000000000        57.15000000000        57.15000000000        57.15000000000        57.15000000000        57.15000000000        57.15000000000        57.15000000000        59.39800000000        59.39800000000        59.39800000000        59.29302349687        59.02148007491        58.13649003746        57.25150000000        57.25150000000        57.25150000000        58.13649003746        59.02148007491        59.29302349687        59.39800000000        59.39800000000        59.39800000000    
   61.64600000000        61.64600000000        61.64600000000        61.43604699374        60.89296014982        59.12298007491        57.35300000000        57.35300000000        57.35300000000        59.12298007491        60.89296014982        61.43604699374        61.64600000000        61.64600000000        61.64600000000        57.11518576414        57.11518576414        57.11518576414        57.11518576414        57.11518576414        57.11518576414        57.11518576414        57.11518576414        57.11518576414        57.11518576414        57.11518576414        57.11518576414        57.11518576414        57.11518576414        57.11518576414    
   59.36181634328        59.36181634328        59.36181634328        59.25690378900        58.98552578396        58.10107485852        57.21662393308        57.21662393308        57.21662393308        58.10107485852        58.98552578396        59.25690378900        59.36181634328        59.36181634328        59.36181634328        61.60844692242        61.60844692242        61.60844692242        61.39862181385        60.85586580377        59.08696395290        57.31806210203        57.31806210203        57.31806210203        59.08696395290        60.85586580377        61.39862181385        61.60844692242        61.60844692242        61.60844692242    
  0.0000000000000       0.0000000000000       0.0000000000000       0.0000000000000       0.0000000000000       0.0000000000000       0.0000000000000       0.0000000000000       0.0000000000000       0.0000000000000       0.0000000000000       0.0000000000000       0.0000000000000       0.0000000000000       0.0000000000000       0.0000000000000       0.0000000000000       0.0000000000000       0.0000000000000       0.0000000000000       0.0000000000000       0.0000000000000       0.0000000000000       0.0000000000000       0.0000000000000       0.0000000000000       0.0000000000000       0.0000000000000       0.0000000000000       0.0000000000000    
  0.0000000000000       0.0000000000000       0.0000000000000       0.0000000000000       0.0000000000000       0.0000000000000       0.0000000000000       0.0000000000000       0.0000000000000       0.0000000000000       0.0000000000000       0.0000000000000       0.0000000000000       0.0000000000000       0.0000000000000        1.994506236548        1.994506236548        1.994506236548        1.994506236548        1.994506236548        1.994506236548        1.994506236548        1.994506236548        1.994506236548        1.994506236548        1.994506236548        1.994506236548        1.994506236548        1.994506236548        1.994506236548    
   2.072960305135        2.072960305135        2.072960305135        2.069296678010        2.059819949251        2.028934242357        1.998048535463        1.998048535463        1.998048535463        2.028934242357        2.059819949251        2.069296678010        2.072960305135        2.072960305135        2.072960305135        2.151414373722        2.151414373722        2.151414373722        2.144087119473        2.125133661954        2.063362248166        2.001590834379        2.001590834379        2.001590834379        2.063362248166        2.125133661954        2.144087119473        2.151414373722        2.151414373722        2.151414373722    
                   1                    2                    3                    4                    5                    6                    7                    8                    9                   10                   11                   12                   13                   14                   15                   16                   17                   18                   19                   20                   21                   22                   23                   24                   25                   26                   27                   28
   1  2  17  16  46  47  62  61
   2  3  18  17  47  48  63  62
   3  4  19  18  48  49  64  63
   4  5  20  19  49  50  65  64
   5  6  21  20  50  51  66  65
   6  7  22  21  51  52  67  66
   7  8  23  22  52  53  68  67
   8  9  24  23  53  54  69  68
   9  10  25  24  54  55  70  69
   10  11  26  25  55  56  71  70
   11  12  27  26  56  57  72  71
   12  13  28  27  57  58  73  72
   13  14  29  28  58  59  74  73
   14  15  30  29  59  60  75  74
   16  17  32  31  61  62  77  76
   17  18  33  32  62  63  78  77
   18  19  34  33  63  64  79  78
   19  20  35  34  64  65  80  79
   20  21  36  35  65  66  81  80
   21  22  37  36  66  67  82  81
   22  23  38  37  67  68  83  82
   23  24  39  38  68  69  84  83
   24  25  40  39  69  70  85  84
   25  26  41  40  70  71  86  85
   26  27  42  41  71  72  87  86
   27  28  43  42  72  73  88  87
   28  29  44  43  73  74  89  88
   29  30  45  44  74  75  90  89
 Zone T="Boundary Faces", nodes=  90 , elements=  88
 datapacking=block, zonetype=fequadrilateral
 varsharelist=([1-3]=1)
 varlocation=([1-3]=nodal)
 varlocation=([4]=cellcentered)
                 -100                  -100                  -100                  -100                  -100                  -100                  -100                  -100                  -100                  -100                  -100                  -100                  -100                  -100                  -100                  -100                  -100                  -100                  -100                  -100                  -100                  -100                  -100                  -100                  -100                  -100                  -100                  -100                  -101                  -102
                 -103                  -104                  -105                  -106                  -107                  -108                  -109                  -110                  -111                  -112                  -113                  -114                  -115                  -116                  -117                  -118                  -119                  -120                  -121                  -122                  -123                  -124                  -125                  -126                  -127                  -128                    -4                    -4                    -4                    -4
                   -4                    -4                    -4                    -4                    -4                    -4                    -4                    -4                    -4                    -4                    -3                    -3                    -3                    -3                    -3                    -3                    -3                    -3                    -3                    -3                    -3                    -3                    -3                    -3                    -1                    -1                    -2                    -2
   1  2  17  16
   2  3  18  17
   3  4  19  18
   4  5  20  19
   5  6  21  20
   6  7  22  21
   7  8  23  22
   8  9  24  23
   9  10  25  24
   10  11  26  25
   11  12  27  26
   12  13  28  27
   13  14  29  28
   14  15  30  29
   16  17  32  31
   17  18  33  32
   18  19  34  33
   19  20  35  34
   20  21  36  35
   21  22  37  36
   22  23  38  37
   23  24  39  38
   24  25  40  39
   25  26  41  40
   26  27  42  41
   27  28  43  42
   28  29  44  43
   29  30  45  44
   46  47  62  61
   47  48  63  62
   48  49  64  63
   49  50  65  64
   50  51  66  65
   51  52  67  66
   52  53  68  67
   53  54  69  68
   54  55  70  69
   55  56  71  70
   56  57  72  71
   57  58  73  72
   58  59  74  73
   59  60  75  74
   61  62  77  76
   62  63  78  77
   63  64  79  78
   64  65  80  79
   65  66  81  80
   66  67  82  81
   67  68  83  82
   68  69  84  83
   69  70  85  84
   70  71  86  85
   71  72  87  86
   72  73  88  87
   73  74  89  88
   74  75  90  89
   1  46  47  2
   2  47  48  3
   3  48  49  4
   4  49  50  5
   5  50  51  6
   6  51  52  7
   7  52  53  8
   8  53  54  9
   9  54  55  10
   10  55  56  11
   11  56  57  12
   12  57  58  13
   13  58  59  14
   14  59  60  15
   31  76  77  32
   32  77  78  33
   33  78  79  34
   34  79  80  35
   35  80  81  36
   36  81  82  37
   37  82  83  38
   38  83  84  39
   39  84  85  40
   40  85  86  41
   41  86  87  42
   42  87  88  43
   43  88  89  44
   44  89  90  45
   1  16  61  46
   16  31  76  61
   15  30  75  60
   30  45  90  75
